ITEM: TIMESTEP
0
ITEM: NUMBER OF ATOMS
800
ITEM: BOX BOUNDS pp pp pp
-5.0000000000000000e+01 5.0000000000000000e+01
-5.0000000000000000e+01 5.0000000000000000e+01
-5.0000000000000000e+01 5.0000000000000000e+01
ITEM: ATOMS id type x y z ix iy iz 
401 3 -25 -25 -50 0 0 0 
402 3 -25 -25 -49 0 1 0 
403 3 -25 -25 -48 0 2 0 
404 3 -25 -25 -47 0 3 0 
405 3 -25 -25 -46 0 4 0 
406 3 -25 -25 -45 0 5 0 
501 3 -26 -25 -50 0 100 0 
502 3 -26 -25 -49 0 101 0 
503 3 -26 -25 -48 0 102 0 
504 3 -26 -25 -47 0 103 0 
505 3 -26 -25 -46 0 104 0 
506 3 -26 -25 -45 0 105 0 
407 3 -25 -25 -44 0 6 0 
408 3 -25 -25 -43 0 7 0 
409 3 -25 -25 -42 0 8 0 
410 3 -25 -25 -41 0 9 0 
411 3 -25 -25 -40 0 10 0 
412 3 -25 -25 -39 0 11 0 
507 3 -26 -25 -44 0 106 0 
508 3 -26 -25 -43 0 107 0 
509 3 -26 -25 -42 0 108 0 
510 3 -26 -25 -41 0 109 0 
511 3 -26 -25 -40 0 110 0 
512 3 -26 -25 -39 0 111 0 
413 3 -25 -25 -38 0 12 0 
414 3 -25 -25 -37 0 13 0 
415 3 -25 -25 -36 0 14 0 
416 3 -25 -25 -35 0 15 0 
417 3 -25 -25 -34 0 16 0 
513 3 -26 -25 -38 0 112 0 
514 3 -26 -25 -37 0 113 0 
515 3 -26 -25 -36 0 114 0 
516 3 -26 -25 -35 0 115 0 
517 3 -26 -25 -34 0 116 0 
418 3 -25 -25 -33 0 17 0 
419 3 -25 -25 -32 0 18 0 
420 3 -25 -25 -31 0 19 0 
421 3 -25 -25 -30 0 20 0 
422 3 -25 -25 -29 0 21 0 
423 3 -25 -25 -28 0 22 0 
518 3 -26 -25 -33 0 117 0 
519 3 -26 -25 -32 0 118 0 
520 3 -26 -25 -31 0 119 0 
521 3 -26 -25 -30 0 120 0 
522 3 -26 -25 -29 0 121 0 
523 3 -26 -25 -28 0 122 0 
424 3 -25 -25 -27 0 23 0 
425 3 -25 -25 -26 0 24 0 
426 3 -25 -25 -25 0 25 0 
427 3 -25 -25 -24 0 26 0 
428 3 -25 -25 -23 0 27 0 
524 3 -26 -25 -27 0 123 0 
525 3 -26 -25 -26 0 124 0 
526 3 -26 -25 -25 0 125 0 
527 3 -26 -25 -24 0 126 0 
528 3 -26 -25 -23 0 127 0 
429 3 -25 -25 -22 0 28 0 
430 3 -25 -25 -21 0 29 0 
431 3 -25 -25 -20 0 30 0 
432 3 -25 -25 -19 0 31 0 
433 3 -25 -25 -18 0 32 0 
434 3 -25 -25 -17 0 33 0 
529 3 -26 -25 -22 0 128 0 
530 3 -26 -25 -21 0 129 0 
531 3 -26 -25 -20 0 130 0 
532 3 -26 -25 -19 0 131 0 
533 3 -26 -25 -18 0 132 0 
534 3 -26 -25 -17 0 133 0 
435 3 -25 -25 -16 0 34 0 
436 3 -25 -25 -15 0 35 0 
437 3 -25 -25 -14 0 36 0 
438 3 -25 -25 -13 0 37 0 
439 3 -25 -25 -12 0 38 0 
535 3 -26 -25 -16 0 134 0 
536 3 -26 -25 -15 0 135 0 
537 3 -26 -25 -14 0 136 0 
538 3 -26 -25 -13 0 137 0 
539 3 -26 -25 -12 0 138 0 
440 3 -25 -25 -11 0 39 0 
441 3 -25 -25 -10 0 40 0 
442 3 -25 -25 -9 0 41 0 
443 3 -25 -25 -8 0 42 0 
444 3 -25 -25 -7 0 43 0 
445 3 -25 -25 -6 0 44 0 
540 3 -26 -25 -11 0 139 0 
541 3 -26 -25 -10 0 140 0 
542 3 -26 -25 -9 0 141 0 
543 3 -26 -25 -8 0 142 0 
544 3 -26 -25 -7 0 143 0 
545 3 -26 -25 -6 0 144 0 
446 3 -25 -25 -5 0 45 0 
447 3 -25 -25 -4 0 46 0 
448 3 -25 -25 -3 0 47 0 
449 3 -25 -25 -2 0 48 0 
450 3 -25 -25 -1 0 49 0 
546 3 -26 -25 -5 0 145 0 
547 3 -26 -25 -4 0 146 0 
548 3 -26 -25 -3 0 147 0 
549 3 -26 -25 -2 0 148 0 
550 3 -26 -25 -1 0 149 0 
451 3 -25 -25 0 0 50 0 
452 3 -25 -25 1 0 51 0 
453 3 -25 -25 2 0 52 0 
454 3 -25 -25 3 0 53 0 
455 3 -25 -25 4 0 54 0 
456 3 -25 -25 5 0 55 0 
551 3 -26 -25 0 0 150 0 
552 3 -26 -25 1 0 151 0 
553 3 -26 -25 2 0 152 0 
554 3 -26 -25 3 0 153 0 
555 3 -26 -25 4 0 154 0 
556 3 -26 -25 5 0 155 0 
457 3 -25 -25 6 0 56 0 
458 3 -25 -25 7 0 57 0 
459 3 -25 -25 8 0 58 0 
460 3 -25 -25 9 0 59 0 
461 3 -25 -25 10 0 60 0 
462 3 -25 -25 11 0 61 0 
557 3 -26 -25 6 0 156 0 
558 3 -26 -25 7 0 157 0 
559 3 -26 -25 8 0 158 0 
560 3 -26 -25 9 0 159 0 
561 3 -26 -25 10 0 160 0 
562 3 -26 -25 11 0 161 0 
463 3 -25 -25 12 0 62 0 
464 3 -25 -25 13 0 63 0 
465 3 -25 -25 14 0 64 0 
466 3 -25 -25 15 0 65 0 
467 3 -25 -25 16 0 66 0 
563 3 -26 -25 12 0 162 0 
564 3 -26 -25 13 0 163 0 
565 3 -26 -25 14 0 164 0 
566 3 -26 -25 15 0 165 0 
567 3 -26 -25 16 0 166 0 
468 3 -25 -25 17 0 67 0 
469 3 -25 -25 18 0 68 0 
470 3 -25 -25 19 0 69 0 
471 3 -25 -25 20 0 70 0 
472 3 -25 -25 21 0 71 0 
473 3 -25 -25 22 0 72 0 
568 3 -26 -25 17 0 167 0 
569 3 -26 -25 18 0 168 0 
570 3 -26 -25 19 0 169 0 
571 3 -26 -25 20 0 170 0 
572 3 -26 -25 21 0 171 0 
573 3 -26 -25 22 0 172 0 
474 3 -25 -25 23 0 73 0 
475 3 -25 -25 24 0 74 0 
476 3 -25 -25 25 0 75 0 
477 3 -25 -25 26 0 76 0 
478 3 -25 -25 27 0 77 0 
574 3 -26 -25 23 0 173 0 
575 3 -26 -25 24 0 174 0 
576 3 -26 -25 25 0 175 0 
577 3 -26 -25 26 0 176 0 
578 3 -26 -25 27 0 177 0 
479 3 -25 -25 28 0 78 0 
480 3 -25 -25 29 0 79 0 
481 3 -25 -25 30 0 80 0 
482 3 -25 -25 31 0 81 0 
483 3 -25 -25 32 0 82 0 
484 3 -25 -25 33 0 83 0 
579 3 -26 -25 28 0 178 0 
580 3 -26 -25 29 0 179 0 
581 3 -26 -25 30 0 180 0 
582 3 -26 -25 31 0 181 0 
583 3 -26 -25 32 0 182 0 
584 3 -26 -25 33 0 183 0 
485 3 -25 -25 34 0 84 0 
486 3 -25 -25 35 0 85 0 
487 3 -25 -25 36 0 86 0 
488 3 -25 -25 37 0 87 0 
489 3 -25 -25 38 0 88 0 
585 3 -26 -25 34 0 184 0 
586 3 -26 -25 35 0 185 0 
587 3 -26 -25 36 0 186 0 
588 3 -26 -25 37 0 187 0 
589 3 -26 -25 38 0 188 0 
490 3 -25 -25 39 0 89 0 
491 3 -25 -25 40 0 90 0 
492 3 -25 -25 41 0 91 0 
493 3 -25 -25 42 0 92 0 
494 3 -25 -25 43 0 93 0 
495 3 -25 -25 44 0 94 0 
590 3 -26 -25 39 0 189 0 
591 3 -26 -25 40 0 190 0 
592 3 -26 -25 41 0 191 0 
593 3 -26 -25 42 0 192 0 
594 3 -26 -25 43 0 193 0 
595 3 -26 -25 44 0 194 0 
496 3 -25 -25 45 0 95 0 
497 3 -25 -25 46 0 96 0 
498 3 -25 -25 47 0 97 0 
499 3 -25 -25 48 0 98 0 
500 3 -25 -25 49 0 99 0 
596 3 -26 -25 45 0 195 0 
597 3 -26 -25 46 0 196 0 
598 3 -26 -25 47 0 197 0 
599 3 -26 -25 48 0 198 0 
600 3 -26 -25 49 0 199 0 
1 1 0 0 -49 0 0 0 
2 1 0 0 -48 0 0 0 
3 1 0 0 -47 0 0 0 
4 1 0 0 -46 0 0 0 
5 1 0 0 -45 0 0 0 
100 1 0 0 -50 0 0 1 
101 1 1 0 -50 0 0 1 
196 1 1 0 -45 0 0 0 
197 1 1 0 -46 0 0 0 
198 1 1 0 -47 0 0 0 
199 1 1 0 -48 0 0 0 
200 1 1 0 -49 0 0 0 
601 4 20 20 -50 0 0 0 
602 4 20 20 -49 0 1 0 
603 4 20 20 -48 0 2 0 
604 4 20 20 -47 0 3 0 
605 4 20 20 -46 0 4 0 
606 4 20 20 -45 0 5 0 
701 4 19 20 -50 0 100 0 
702 4 19 20 -49 0 101 0 
703 4 19 20 -48 0 102 0 
704 4 19 20 -47 0 103 0 
705 4 19 20 -46 0 104 0 
706 4 19 20 -45 0 105 0 
301 2 39 40 -50 0 100 0 
302 2 39 40 -49 0 101 0 
303 2 39 40 -48 0 102 0 
304 2 39 40 -47 0 103 0 
305 2 39 40 -46 0 104 0 
306 2 39 40 -45 0 105 0 
201 2 40 40 -50 0 0 0 
202 2 40 40 -49 0 1 0 
203 2 40 40 -48 0 2 0 
204 2 40 40 -47 0 3 0 
205 2 40 40 -46 0 4 0 
206 2 40 40 -45 0 5 0 
6 1 0 0 -44 0 0 0 
7 1 0 0 -43 0 0 0 
8 1 0 0 -42 0 0 0 
9 1 0 0 -41 0 0 0 
10 1 0 0 -40 0 0 0 
11 1 0 0 -39 0 0 0 
190 1 1 0 -39 0 0 0 
191 1 1 0 -40 0 0 0 
192 1 1 0 -41 0 0 0 
193 1 1 0 -42 0 0 0 
194 1 1 0 -43 0 0 0 
195 1 1 0 -44 0 0 0 
607 4 20 20 -44 0 6 0 
608 4 20 20 -43 0 7 0 
609 4 20 20 -42 0 8 0 
610 4 20 20 -41 0 9 0 
611 4 20 20 -40 0 10 0 
612 4 20 20 -39 0 11 0 
707 4 19 20 -44 0 106 0 
708 4 19 20 -43 0 107 0 
709 4 19 20 -42 0 108 0 
710 4 19 20 -41 0 109 0 
711 4 19 20 -40 0 110 0 
712 4 19 20 -39 0 111 0 
307 2 39 40 -44 0 106 0 
308 2 39 40 -43 0 107 0 
309 2 39 40 -42 0 108 0 
310 2 39 40 -41 0 109 0 
311 2 39 40 -40 0 110 0 
312 2 39 40 -39 0 111 0 
207 2 40 40 -44 0 6 0 
208 2 40 40 -43 0 7 0 
209 2 40 40 -42 0 8 0 
210 2 40 40 -41 0 9 0 
211 2 40 40 -40 0 10 0 
212 2 40 40 -39 0 11 0 
12 1 0 0 -38 0 0 0 
13 1 0 0 -37 0 0 0 
14 1 0 0 -36 0 0 0 
15 1 0 0 -35 0 0 0 
16 1 0 0 -34 0 0 0 
185 1 1 0 -34 0 0 0 
186 1 1 0 -35 0 0 0 
187 1 1 0 -36 0 0 0 
188 1 1 0 -37 0 0 0 
189 1 1 0 -38 0 0 0 
613 4 20 20 -38 0 12 0 
614 4 20 20 -37 0 13 0 
615 4 20 20 -36 0 14 0 
616 4 20 20 -35 0 15 0 
617 4 20 20 -34 0 16 0 
713 4 19 20 -38 0 112 0 
714 4 19 20 -37 0 113 0 
715 4 19 20 -36 0 114 0 
716 4 19 20 -35 0 115 0 
717 4 19 20 -34 0 116 0 
313 2 39 40 -38 0 112 0 
314 2 39 40 -37 0 113 0 
315 2 39 40 -36 0 114 0 
316 2 39 40 -35 0 115 0 
317 2 39 40 -34 0 116 0 
213 2 40 40 -38 0 12 0 
214 2 40 40 -37 0 13 0 
215 2 40 40 -36 0 14 0 
216 2 40 40 -35 0 15 0 
217 2 40 40 -34 0 16 0 
17 1 0 0 -33 0 0 0 
18 1 0 0 -32 0 0 0 
19 1 0 0 -31 0 0 0 
20 1 0 0 -30 0 0 0 
21 1 0 0 -29 0 0 0 
22 1 0 0 -28 0 0 0 
179 1 1 0 -28 0 0 0 
180 1 1 0 -29 0 0 0 
181 1 1 0 -30 0 0 0 
182 1 1 0 -31 0 0 0 
183 1 1 0 -32 0 0 0 
184 1 1 0 -33 0 0 0 
618 4 20 20 -33 0 17 0 
619 4 20 20 -32 0 18 0 
620 4 20 20 -31 0 19 0 
621 4 20 20 -30 0 20 0 
622 4 20 20 -29 0 21 0 
623 4 20 20 -28 0 22 0 
718 4 19 20 -33 0 117 0 
719 4 19 20 -32 0 118 0 
720 4 19 20 -31 0 119 0 
721 4 19 20 -30 0 120 0 
722 4 19 20 -29 0 121 0 
723 4 19 20 -28 0 122 0 
318 2 39 40 -33 0 117 0 
319 2 39 40 -32 0 118 0 
320 2 39 40 -31 0 119 0 
321 2 39 40 -30 0 120 0 
322 2 39 40 -29 0 121 0 
323 2 39 40 -28 0 122 0 
218 2 40 40 -33 0 17 0 
219 2 40 40 -32 0 18 0 
220 2 40 40 -31 0 19 0 
221 2 40 40 -30 0 20 0 
222 2 40 40 -29 0 21 0 
223 2 40 40 -28 0 22 0 
23 1 0 0 -27 0 0 0 
24 1 0 0 -26 0 0 0 
25 1 0 0 -25 0 0 0 
26 1 0 0 -24 0 0 0 
27 1 0 0 -23 0 0 0 
174 1 1 0 -23 0 0 0 
175 1 1 0 -24 0 0 0 
176 1 1 0 -25 0 0 0 
177 1 1 0 -26 0 0 0 
178 1 1 0 -27 0 0 0 
624 4 20 20 -27 0 23 0 
625 4 20 20 -26 0 24 0 
626 4 20 20 -25 0 25 0 
627 4 20 20 -24 0 26 0 
628 4 20 20 -23 0 27 0 
724 4 19 20 -27 0 123 0 
725 4 19 20 -26 0 124 0 
726 4 19 20 -25 0 125 0 
727 4 19 20 -24 0 126 0 
728 4 19 20 -23 0 127 0 
324 2 39 40 -27 0 123 0 
325 2 39 40 -26 0 124 0 
326 2 39 40 -25 0 125 0 
327 2 39 40 -24 0 126 0 
328 2 39 40 -23 0 127 0 
224 2 40 40 -27 0 23 0 
225 2 40 40 -26 0 24 0 
226 2 40 40 -25 0 25 0 
227 2 40 40 -24 0 26 0 
228 2 40 40 -23 0 27 0 
28 1 0 0 -22 0 0 0 
29 1 0 0 -21 0 0 0 
30 1 0 0 -20 0 0 0 
31 1 0 0 -19 0 0 0 
32 1 0 0 -18 0 0 0 
33 1 0 0 -17 0 0 0 
168 1 1 0 -17 0 0 0 
169 1 1 0 -18 0 0 0 
170 1 1 0 -19 0 0 0 
171 1 1 0 -20 0 0 0 
172 1 1 0 -21 0 0 0 
173 1 1 0 -22 0 0 0 
629 4 20 20 -22 0 28 0 
630 4 20 20 -21 0 29 0 
631 4 20 20 -20 0 30 0 
632 4 20 20 -19 0 31 0 
633 4 20 20 -18 0 32 0 
634 4 20 20 -17 0 33 0 
729 4 19 20 -22 0 128 0 
730 4 19 20 -21 0 129 0 
731 4 19 20 -20 0 130 0 
732 4 19 20 -19 0 131 0 
733 4 19 20 -18 0 132 0 
734 4 19 20 -17 0 133 0 
329 2 39 40 -22 0 128 0 
330 2 39 40 -21 0 129 0 
331 2 39 40 -20 0 130 0 
332 2 39 40 -19 0 131 0 
333 2 39 40 -18 0 132 0 
334 2 39 40 -17 0 133 0 
229 2 40 40 -22 0 28 0 
230 2 40 40 -21 0 29 0 
231 2 40 40 -20 0 30 0 
232 2 40 40 -19 0 31 0 
233 2 40 40 -18 0 32 0 
234 2 40 40 -17 0 33 0 
34 1 0 0 -16 0 0 0 
35 1 0 0 -15 0 0 0 
36 1 0 0 -14 0 0 0 
37 1 0 0 -13 0 0 0 
38 1 0 0 -12 0 0 0 
163 1 1 0 -12 0 0 0 
164 1 1 0 -13 0 0 0 
165 1 1 0 -14 0 0 0 
166 1 1 0 -15 0 0 0 
167 1 1 0 -16 0 0 0 
635 4 20 20 -16 0 34 0 
636 4 20 20 -15 0 35 0 
637 4 20 20 -14 0 36 0 
638 4 20 20 -13 0 37 0 
639 4 20 20 -12 0 38 0 
735 4 19 20 -16 0 134 0 
736 4 19 20 -15 0 135 0 
737 4 19 20 -14 0 136 0 
738 4 19 20 -13 0 137 0 
739 4 19 20 -12 0 138 0 
335 2 39 40 -16 0 134 0 
336 2 39 40 -15 0 135 0 
337 2 39 40 -14 0 136 0 
338 2 39 40 -13 0 137 0 
339 2 39 40 -12 0 138 0 
235 2 40 40 -16 0 34 0 
236 2 40 40 -15 0 35 0 
237 2 40 40 -14 0 36 0 
238 2 40 40 -13 0 37 0 
239 2 40 40 -12 0 38 0 
39 1 0 0 -11 0 0 0 
40 1 0 0 -10 0 0 0 
41 1 0 0 -9 0 0 0 
42 1 0 0 -8 0 0 0 
43 1 0 0 -7 0 0 0 
44 1 0 0 -6 0 0 0 
157 1 1 0 -6 0 0 0 
158 1 1 0 -7 0 0 0 
159 1 1 0 -8 0 0 0 
160 1 1 0 -9 0 0 0 
161 1 1 0 -10 0 0 0 
162 1 1 0 -11 0 0 0 
640 4 20 20 -11 0 39 0 
641 4 20 20 -10 0 40 0 
642 4 20 20 -9 0 41 0 
643 4 20 20 -8 0 42 0 
644 4 20 20 -7 0 43 0 
645 4 20 20 -6 0 44 0 
740 4 19 20 -11 0 139 0 
741 4 19 20 -10 0 140 0 
742 4 19 20 -9 0 141 0 
743 4 19 20 -8 0 142 0 
744 4 19 20 -7 0 143 0 
745 4 19 20 -6 0 144 0 
340 2 39 40 -11 0 139 0 
341 2 39 40 -10 0 140 0 
342 2 39 40 -9 0 141 0 
343 2 39 40 -8 0 142 0 
344 2 39 40 -7 0 143 0 
345 2 39 40 -6 0 144 0 
240 2 40 40 -11 0 39 0 
241 2 40 40 -10 0 40 0 
242 2 40 40 -9 0 41 0 
243 2 40 40 -8 0 42 0 
244 2 40 40 -7 0 43 0 
245 2 40 40 -6 0 44 0 
45 1 0 0 -5 0 0 0 
46 1 0 0 -4 0 0 0 
47 1 0 0 -3 0 0 0 
48 1 0 0 -2 0 0 0 
49 1 0 0 -1 0 0 0 
152 1 1 0 -1 0 0 0 
153 1 1 0 -2 0 0 0 
154 1 1 0 -3 0 0 0 
155 1 1 0 -4 0 0 0 
156 1 1 0 -5 0 0 0 
646 4 20 20 -5 0 45 0 
647 4 20 20 -4 0 46 0 
648 4 20 20 -3 0 47 0 
649 4 20 20 -2 0 48 0 
650 4 20 20 -1 0 49 0 
746 4 19 20 -5 0 145 0 
747 4 19 20 -4 0 146 0 
748 4 19 20 -3 0 147 0 
749 4 19 20 -2 0 148 0 
750 4 19 20 -1 0 149 0 
346 2 39 40 -5 0 145 0 
347 2 39 40 -4 0 146 0 
348 2 39 40 -3 0 147 0 
349 2 39 40 -2 0 148 0 
350 2 39 40 -1 0 149 0 
246 2 40 40 -5 0 45 0 
247 2 40 40 -4 0 46 0 
248 2 40 40 -3 0 47 0 
249 2 40 40 -2 0 48 0 
250 2 40 40 -1 0 49 0 
50 1 0 0 0 0 0 0 
51 1 0 0 1 0 0 0 
52 1 0 0 2 0 0 0 
53 1 0 0 3 0 0 0 
54 1 0 0 4 0 0 0 
55 1 0 0 5 0 0 0 
146 1 1 0 5 0 0 0 
147 1 1 0 4 0 0 0 
148 1 1 0 3 0 0 0 
149 1 1 0 2 0 0 0 
150 1 1 0 1 0 0 0 
151 1 1 0 0 0 0 0 
651 4 20 20 0 0 50 0 
652 4 20 20 1 0 51 0 
653 4 20 20 2 0 52 0 
654 4 20 20 3 0 53 0 
655 4 20 20 4 0 54 0 
656 4 20 20 5 0 55 0 
751 4 19 20 0 0 150 0 
752 4 19 20 1 0 151 0 
753 4 19 20 2 0 152 0 
754 4 19 20 3 0 153 0 
755 4 19 20 4 0 154 0 
756 4 19 20 5 0 155 0 
351 2 39 40 0 0 150 0 
352 2 39 40 1 0 151 0 
353 2 39 40 2 0 152 0 
354 2 39 40 3 0 153 0 
355 2 39 40 4 0 154 0 
356 2 39 40 5 0 155 0 
251 2 40 40 0 0 50 0 
252 2 40 40 1 0 51 0 
253 2 40 40 2 0 52 0 
254 2 40 40 3 0 53 0 
255 2 40 40 4 0 54 0 
256 2 40 40 5 0 55 0 
56 1 0 0 6 0 0 0 
57 1 0 0 7 0 0 0 
58 1 0 0 8 0 0 0 
59 1 0 0 9 0 0 0 
60 1 0 0 10 0 0 0 
61 1 0 0 11 0 0 0 
140 1 1 0 11 0 0 0 
141 1 1 0 10 0 0 0 
142 1 1 0 9 0 0 0 
143 1 1 0 8 0 0 0 
144 1 1 0 7 0 0 0 
145 1 1 0 6 0 0 0 
657 4 20 20 6 0 56 0 
658 4 20 20 7 0 57 0 
659 4 20 20 8 0 58 0 
660 4 20 20 9 0 59 0 
661 4 20 20 10 0 60 0 
662 4 20 20 11 0 61 0 
757 4 19 20 6 0 156 0 
758 4 19 20 7 0 157 0 
759 4 19 20 8 0 158 0 
760 4 19 20 9 0 159 0 
761 4 19 20 10 0 160 0 
762 4 19 20 11 0 161 0 
357 2 39 40 6 0 156 0 
358 2 39 40 7 0 157 0 
359 2 39 40 8 0 158 0 
360 2 39 40 9 0 159 0 
361 2 39 40 10 0 160 0 
362 2 39 40 11 0 161 0 
257 2 40 40 6 0 56 0 
258 2 40 40 7 0 57 0 
259 2 40 40 8 0 58 0 
260 2 40 40 9 0 59 0 
261 2 40 40 10 0 60 0 
262 2 40 40 11 0 61 0 
62 1 0 0 12 0 0 0 
63 1 0 0 13 0 0 0 
64 1 0 0 14 0 0 0 
65 1 0 0 15 0 0 0 
66 1 0 0 16 0 0 0 
135 1 1 0 16 0 0 0 
136 1 1 0 15 0 0 0 
137 1 1 0 14 0 0 0 
138 1 1 0 13 0 0 0 
139 1 1 0 12 0 0 0 
663 4 20 20 12 0 62 0 
664 4 20 20 13 0 63 0 
665 4 20 20 14 0 64 0 
666 4 20 20 15 0 65 0 
667 4 20 20 16 0 66 0 
763 4 19 20 12 0 162 0 
764 4 19 20 13 0 163 0 
765 4 19 20 14 0 164 0 
766 4 19 20 15 0 165 0 
767 4 19 20 16 0 166 0 
363 2 39 40 12 0 162 0 
364 2 39 40 13 0 163 0 
365 2 39 40 14 0 164 0 
366 2 39 40 15 0 165 0 
367 2 39 40 16 0 166 0 
263 2 40 40 12 0 62 0 
264 2 40 40 13 0 63 0 
265 2 40 40 14 0 64 0 
266 2 40 40 15 0 65 0 
267 2 40 40 16 0 66 0 
67 1 0 0 17 0 0 0 
68 1 0 0 18 0 0 0 
69 1 0 0 19 0 0 0 
70 1 0 0 20 0 0 0 
71 1 0 0 21 0 0 0 
72 1 0 0 22 0 0 0 
129 1 1 0 22 0 0 0 
130 1 1 0 21 0 0 0 
131 1 1 0 20 0 0 0 
132 1 1 0 19 0 0 0 
133 1 1 0 18 0 0 0 
134 1 1 0 17 0 0 0 
668 4 20 20 17 0 67 0 
669 4 20 20 18 0 68 0 
670 4 20 20 19 0 69 0 
671 4 20 20 20 0 70 0 
672 4 20 20 21 0 71 0 
673 4 20 20 22 0 72 0 
768 4 19 20 17 0 167 0 
769 4 19 20 18 0 168 0 
770 4 19 20 19 0 169 0 
771 4 19 20 20 0 170 0 
772 4 19 20 21 0 171 0 
773 4 19 20 22 0 172 0 
368 2 39 40 17 0 167 0 
369 2 39 40 18 0 168 0 
370 2 39 40 19 0 169 0 
371 2 39 40 20 0 170 0 
372 2 39 40 21 0 171 0 
373 2 39 40 22 0 172 0 
268 2 40 40 17 0 67 0 
269 2 40 40 18 0 68 0 
270 2 40 40 19 0 69 0 
271 2 40 40 20 0 70 0 
272 2 40 40 21 0 71 0 
273 2 40 40 22 0 72 0 
73 1 0 0 23 0 0 0 
74 1 0 0 24 0 0 0 
75 1 0 0 25 0 0 0 
76 1 0 0 26 0 0 0 
77 1 0 0 27 0 0 0 
124 1 1 0 27 0 0 0 
125 1 1 0 26 0 0 0 
126 1 1 0 25 0 0 0 
127 1 1 0 24 0 0 0 
128 1 1 0 23 0 0 0 
674 4 20 20 23 0 73 0 
675 4 20 20 24 0 74 0 
676 4 20 20 25 0 75 0 
677 4 20 20 26 0 76 0 
678 4 20 20 27 0 77 0 
774 4 19 20 23 0 173 0 
775 4 19 20 24 0 174 0 
776 4 19 20 25 0 175 0 
777 4 19 20 26 0 176 0 
778 4 19 20 27 0 177 0 
374 2 39 40 23 0 173 0 
375 2 39 40 24 0 174 0 
376 2 39 40 25 0 175 0 
377 2 39 40 26 0 176 0 
378 2 39 40 27 0 177 0 
274 2 40 40 23 0 73 0 
275 2 40 40 24 0 74 0 
276 2 40 40 25 0 75 0 
277 2 40 40 26 0 76 0 
278 2 40 40 27 0 77 0 
78 1 0 0 28 0 0 0 
79 1 0 0 29 0 0 0 
80 1 0 0 30 0 0 0 
81 1 0 0 31 0 0 0 
82 1 0 0 32 0 0 0 
83 1 0 0 33 0 0 0 
118 1 1 0 33 0 0 0 
119 1 1 0 32 0 0 0 
120 1 1 0 31 0 0 0 
121 1 1 0 30 0 0 0 
122 1 1 0 29 0 0 0 
123 1 1 0 28 0 0 0 
679 4 20 20 28 0 78 0 
680 4 20 20 29 0 79 0 
681 4 20 20 30 0 80 0 
682 4 20 20 31 0 81 0 
683 4 20 20 32 0 82 0 
684 4 20 20 33 0 83 0 
779 4 19 20 28 0 178 0 
780 4 19 20 29 0 179 0 
781 4 19 20 30 0 180 0 
782 4 19 20 31 0 181 0 
783 4 19 20 32 0 182 0 
784 4 19 20 33 0 183 0 
379 2 39 40 28 0 178 0 
380 2 39 40 29 0 179 0 
381 2 39 40 30 0 180 0 
382 2 39 40 31 0 181 0 
383 2 39 40 32 0 182 0 
384 2 39 40 33 0 183 0 
279 2 40 40 28 0 78 0 
280 2 40 40 29 0 79 0 
281 2 40 40 30 0 80 0 
282 2 40 40 31 0 81 0 
283 2 40 40 32 0 82 0 
284 2 40 40 33 0 83 0 
84 1 0 0 34 0 0 0 
85 1 0 0 35 0 0 0 
86 1 0 0 36 0 0 0 
87 1 0 0 37 0 0 0 
88 1 0 0 38 0 0 0 
113 1 1 0 38 0 0 0 
114 1 1 0 37 0 0 0 
115 1 1 0 36 0 0 0 
116 1 1 0 35 0 0 0 
117 1 1 0 34 0 0 0 
685 4 20 20 34 0 84 0 
686 4 20 20 35 0 85 0 
687 4 20 20 36 0 86 0 
688 4 20 20 37 0 87 0 
689 4 20 20 38 0 88 0 
785 4 19 20 34 0 184 0 
786 4 19 20 35 0 185 0 
787 4 19 20 36 0 186 0 
788 4 19 20 37 0 187 0 
789 4 19 20 38 0 188 0 
385 2 39 40 34 0 184 0 
386 2 39 40 35 0 185 0 
387 2 39 40 36 0 186 0 
388 2 39 40 37 0 187 0 
389 2 39 40 38 0 188 0 
285 2 40 40 34 0 84 0 
286 2 40 40 35 0 85 0 
287 2 40 40 36 0 86 0 
288 2 40 40 37 0 87 0 
289 2 40 40 38 0 88 0 
89 1 0 0 39 0 0 0 
90 1 0 0 40 0 0 0 
91 1 0 0 41 0 0 0 
92 1 0 0 42 0 0 0 
93 1 0 0 43 0 0 0 
94 1 0 0 44 0 0 0 
107 1 1 0 44 0 0 0 
108 1 1 0 43 0 0 0 
109 1 1 0 42 0 0 0 
110 1 1 0 41 0 0 0 
111 1 1 0 40 0 0 0 
112 1 1 0 39 0 0 0 
690 4 20 20 39 0 89 0 
691 4 20 20 40 0 90 0 
692 4 20 20 41 0 91 0 
693 4 20 20 42 0 92 0 
694 4 20 20 43 0 93 0 
695 4 20 20 44 0 94 0 
790 4 19 20 39 0 189 0 
791 4 19 20 40 0 190 0 
792 4 19 20 41 0 191 0 
793 4 19 20 42 0 192 0 
794 4 19 20 43 0 193 0 
795 4 19 20 44 0 194 0 
390 2 39 40 39 0 189 0 
391 2 39 40 40 0 190 0 
392 2 39 40 41 0 191 0 
393 2 39 40 42 0 192 0 
394 2 39 40 43 0 193 0 
395 2 39 40 44 0 194 0 
290 2 40 40 39 0 89 0 
291 2 40 40 40 0 90 0 
292 2 40 40 41 0 91 0 
293 2 40 40 42 0 92 0 
294 2 40 40 43 0 93 0 
295 2 40 40 44 0 94 0 
95 1 0 0 45 0 0 0 
96 1 0 0 46 0 0 0 
97 1 0 0 47 0 0 0 
98 1 0 0 48 0 0 0 
99 1 0 0 49 0 0 0 
102 1 1 0 49 0 0 0 
103 1 1 0 48 0 0 0 
104 1 1 0 47 0 0 0 
105 1 1 0 46 0 0 0 
106 1 1 0 45 0 0 0 
696 4 20 20 45 0 95 0 
697 4 20 20 46 0 96 0 
698 4 20 20 47 0 97 0 
699 4 20 20 48 0 98 0 
700 4 20 20 49 0 99 0 
796 4 19 20 45 0 195 0 
797 4 19 20 46 0 196 0 
798 4 19 20 47 0 197 0 
799 4 19 20 48 0 198 0 
800 4 19 20 49 0 199 0 
396 2 39 40 45 0 195 0 
397 2 39 40 46 0 196 0 
398 2 39 40 47 0 197 0 
399 2 39 40 48 0 198 0 
400 2 39 40 49 0 199 0 
296 2 40 40 45 0 95 0 
297 2 40 40 46 0 96 0 
298 2 40 40 47 0 97 0 
299 2 40 40 48 0 98 0 
300 2 40 40 49 0 99 0 
ITEM: TIMESTEP
50000
ITEM: NUMBER OF ATOMS
800
ITEM: BOX BOUNDS pp pp pp
-5.0000000000000000e+01 5.0000000000000000e+01
-5.0000000000000000e+01 5.0000000000000000e+01
-5.0000000000000000e+01 5.0000000000000000e+01
ITEM: ATOMS id type x y z ix iy iz 
267 2 -34.0955 -48.2167 -46.2323 0 67 0 
610 4 -3.31885 -45.561 -47.0099 1 12 0 
718 4 -44.0542 -44.074 -46.8958 1 117 1 
498 3 -31.6432 -40.6602 -47.1552 0 96 1 
601 4 -21.4852 -37.8937 -46.0928 2 1 -1 
705 4 -13.3964 -35.6985 -44.5569 0 104 0 
780 4 -13.1788 -36.8898 -46.4241 2 181 0 
259 2 15.9843 -35.8785 -45.6867 0 59 0 
695 4 29.0339 -37.8745 -48.7976 0 94 0 
501 3 33.7186 -35.177 -47.1629 -1 101 0 
511 3 -37.0304 -31.9626 -49.0788 0 111 0 
734 4 -1.06362 -28.8482 -48.5256 0 133 1 
799 4 16.6231 -22.8637 -44.4504 0 199 2 
322 2 32.7236 -25.9689 -48.9937 0 122 1 
224 2 11.0096 -19.5009 -47.5686 1 23 -1 
633 4 -0.469175 -11.6914 -46.4429 0 33 0 
777 4 -35.3327 -9.71133 -47.1929 -1 177 2 
318 2 -30.9069 -47.4835 -43.5168 2 118 0 
388 2 10.0826 -48.0977 -40.2912 -2 189 0 
215 2 -43.4461 -39.4723 -39.5976 2 13 1 
210 2 -17.7359 -42.0781 -41.7901 1 9 1 
586 3 -33.43 -27.2892 -39.9065 -1 185 0 
394 2 -11.5662 -18.2019 -44.2864 -1 192 0 
285 2 -4.8166 -21.9845 -38.9095 0 84 1 
311 2 6.34425 -17.886 -43.744 0 110 0 
209 2 46.0557 -20.5718 -42.5353 0 9 0 
764 4 46.2949 -13.368 -42.3204 0 162 0 
684 4 15.1636 -9.61239 -41.7678 2 85 0 
614 4 -49.0391 -45.5431 -37.9092 1 13 0 
410 3 21.376 -47.786 -34.2426 0 9 0 
531 3 20.6142 -39.9072 -36.6085 0 131 -1 
482 3 16.7985 -27.7667 -34.5668 -1 80 1 
602 4 18.5598 -25.9336 -35.2465 -1 1 0 
451 3 -9.28727 -20.727 -38.0721 0 52 1 
751 4 -9.84653 -20.0092 -36.079 0 150 0 
524 3 -32.4409 -12.0323 -33.6502 0 124 0 
278 2 44.6505 -11.5491 -36.6973 1 77 0 
645 4 -34.8365 -9.36705 -33.8251 0 43 1 
637 4 -8.81302 -10.4028 -36.8895 1 36 0 
769 4 18.0213 -8.10088 -34.1429 1 169 2 
743 4 7.92767 -4.99646 -34.4419 -1 143 2 
338 2 30.7935 -1.22116 -38.5864 0 136 0 
570 3 48.6404 -45.0374 -31.2049 -1 169 0 
328 2 -31.8074 -40.5602 -28.1447 0 128 1 
596 3 17.8844 -37.3719 -29.2355 -1 195 0 
604 4 -21.3486 -28.2393 -32.7043 1 3 -1 
582 3 -23.4653 -29.4999 -33.1382 0 183 1 
574 3 11.2711 -28.7906 -31.1034 -1 172 1 
221 2 1.00816 -23.2936 -30.8966 2 21 -2 
456 3 30.1758 -23.9552 -32.9676 -2 55 0 
726 4 40.9863 -25.5653 -32.3614 2 126 1 
756 4 21.3606 -19.8831 -32.8196 -2 156 0 
702 4 -46.2925 -13.5914 -32.4245 0 101 0 
783 4 -29.0732 -6.57116 -32.5745 0 181 1 
550 3 -10.4676 -7.94373 -28.7572 -1 148 2 
446 3 0.580946 -7.3577 -31.3089 1 46 0 
236 2 33.8199 -0.105616 -28.4389 1 36 -1 
798 4 -1.96186 -44.7503 -26.9067 -1 197 1 
293 2 19.8944 -48.1344 -25.616 1 93 2 
416 3 -33.7806 -44.3057 -25.9307 -1 17 -1 
641 4 -3.47694 -39.7767 -22.3632 0 39 1 
779 4 7.75945 -37.7248 -25.3293 -1 179 0 
665 4 -43.7571 -30.9138 -27.539 2 64 0 
560 3 -23.426 -24.0829 -26.0449 -1 159 0 
452 3 12.3908 -26.8811 -25.1674 -1 50 1 
232 2 -2.71789 -20.2011 -26.037 2 31 -1 
711 4 2.255 -21.8682 -24.5755 -1 110 -1 
404 3 -39.3225 -15.6087 -23.9812 0 4 -1 
732 4 -0.3046 -15.3591 -26.6724 0 130 0 
269 2 17.8413 -13.0723 -23.7866 -1 69 -1 
306 2 26.5372 -16.011 -23.0856 0 106 0 
251 2 -28.8661 -7.74493 -24.2462 1 50 0 
583 3 49.1412 -10.4749 -25.0262 0 182 1 
687 4 -46.8283 -1.42387 -23.5138 2 85 -1 
731 4 -48.5985 -4.43757 -24.1698 0 130 1 
423 3 -12.5556 -0.542124 -26.7286 0 23 0 
422 3 45.5238 -5.32146 -25.1553 1 21 1 
433 3 -9.28136 -45.141 -21.9053 1 31 -1 
661 4 -1.97321 -47.4388 -19.2061 3 63 0 
333 2 -4.09551 -38.8588 -21.9665 0 133 0 
679 4 -17.3882 -28.4525 -17.4731 1 79 1 
585 3 -1.52143 -29.8833 -17.4267 1 184 1 
546 3 5.45526 -11.7083 -20.6086 0 145 1 
363 2 27.3594 -15.4062 -17.6787 -1 163 0 
321 2 -38.0056 -10.1788 -22.194 3 119 0 
430 3 -24.3386 -1.25576 -18.8564 0 28 2 
290 2 27.1426 -3.83318 -19.5212 -1 88 0 
530 3 23.7197 -4.4089 -17.6116 -2 129 -1 
364 2 37.8043 -3.81002 -18.3334 0 163 0 
725 4 -44.9653 -39.9027 -11.965 0 125 -2 
449 3 -24.3514 -42.048 -12.6524 0 46 0 
225 2 18.7498 -41.7508 -14.0683 1 23 -1 
651 4 47.5247 -42.8893 -11.7063 0 53 -1 
648 4 -38.3406 -26.8259 -13.2768 1 48 0 
365 2 -9.68569 -23.074 -12.6817 2 165 0 
565 3 16.8686 -11.9131 -15.4955 -1 165 1 
173 1 22.5297 -11.2722 -11.4852 0 0 0 
542 3 26.7826 -16.6183 -11.5062 -1 142 0 
752 4 30.2941 -13.7965 -15.6835 0 153 0 
545 3 -23.9872 -9.70654 -12.873 -1 144 1 
502 3 -22.6138 -7.53938 -11.1413 -2 101 0 
400 2 2.24186 -7.20259 -14.7892 0 199 1 
174 1 21.9879 -10.5407 -11.9789 0 0 0 
178 1 22.7122 -8.35871 -14.2817 0 0 0 
175 1 22.8196 -10.3056 -12.6958 0 0 0 
176 1 22.7176 -9.50678 -13.4633 0 0 0 
177 1 21.9553 -9.04834 -14.2985 0 0 0 
179 1 23.4846 -7.41574 -14.4698 0 0 0 
519 3 25.539 -7.78226 -16.5677 -1 119 -1 
181 1 25.4001 -7.1221 -15.725 0 0 0 
180 1 24.4832 -7.40036 -15.1389 0 0 0 
182 1 25.8834 -6.2397 -15.5614 0 0 0 
222 2 23.7075 -10.3458 -12.0888 0 21 0 
352 2 24.7553 -10.2714 -11.912 0 150 0 
588 3 -49.5294 -1.03135 -15.5484 1 187 1 
494 3 -44.2076 -3.03269 -14.0444 1 91 2 
419 3 -22.2658 -0.745838 -12.2486 2 18 0 
216 2 -4.45689 -4.78087 -11.3066 0 14 2 
467 3 5.35291 -4.49784 -12.2403 -1 68 1 
485 3 26.0789 -4.20545 -14.3664 0 85 2 
184 1 27.3169 -4.73508 -15.4044 0 0 0 
183 1 26.5307 -5.48154 -14.9865 0 0 0 
185 1 28.4164 -4.58855 -15.8919 0 0 0 
190 1 29.9386 -0.0293432 -14.2065 0 0 0 
186 1 28.9948 -3.86728 -15.3099 0 0 0 
187 1 29.1113 -2.80733 -15.2759 0 0 0 
188 1 29.0605 -1.69334 -15.1665 0 0 0 
189 1 29.944 -1.00315 -14.8309 0 0 0 
217 2 35.8858 -45.7304 -6.70413 -1 17 -1 
787 4 -23.9378 -41.8913 -9.47387 0 186 1 
555 3 30.9588 -42.3963 -7.92905 -1 153 0 
561 3 -38.4356 -34.1284 -6.73282 0 159 0 
213 2 -20.3452 -29.0446 -6.42631 1 12 -1 
562 3 -44.2202 -22.5571 -8.44416 0 161 0 
500 3 -37.0621 -26.3368 -10.9048 0 99 2 
315 2 -8.2797 -26.7933 -8.30642 -1 117 -1 
288 2 21.9891 -22.2532 -7.04379 1 88 1 
427 3 28.0428 -25.7515 -6.33383 1 25 0 
342 2 12.6387 -19.2113 -10.7957 0 142 -2 
706 4 28.3921 -21.4709 -10.3473 1 106 1 
595 3 9.34697 -11.6995 -8.33889 -1 195 1 
170 1 21.715 -12.7287 -9.251 0 0 0 
171 1 22.0081 -12.0233 -10.1712 0 0 0 
167 1 23.0266 -15.0168 -7.86897 0 0 0 
165 1 23.5154 -15.3114 -6.48573 0 0 0 
168 1 22.5718 -14.2759 -8.7811 0 0 0 
166 1 22.7045 -15.6575 -7.11529 0 0 0 
169 1 22.3043 -13.2021 -8.58008 0 0 0 
164 1 24.0437 -15.7514 -5.59756 0 0 0 
172 1 22.0859 -10.9211 -10.4788 0 0 0 
577 3 -47.0367 -2.94284 -10.7854 1 176 1 
330 2 6.02471 -48.1447 -0.616426 -1 130 0 
256 2 -32.1129 -41.4754 -4.53843 0 55 0 
746 4 8.97047 -40.4204 -1.19532 -1 145 2 
763 4 -35.0563 -30.5467 -0.127549 1 162 0 
280 2 2.89696 -27.9003 -4.14279 -2 79 1 
503 3 24.4208 -30.6862 -2.24505 0 102 -1 
373 2 31.1443 -28.6469 -4.29716 0 172 0 
639 4 -46.243 -23.7777 -3.87348 1 38 0 
512 3 -8.04163 -25.2809 -3.54487 0 111 -1 
573 3 -3.77302 -20.7525 -0.393749 -1 172 0 
158 1 22.336 -17.5825 -0.315149 0 0 0 
159 1 23.3433 -17.3273 -0.717146 0 0 0 
160 1 23.3505 -17.3788 -1.96052 0 0 0 
279 2 22.3481 -18.7548 -1.08475 0 79 2 
277 2 23.1119 -19.3857 -0.769964 1 75 0 
162 1 24.063 -17.2267 -4.04277 0 0 0 
161 1 23.698 -17.1205 -3.0173 0 0 0 
776 4 27.2034 -20.5235 -5.13457 -1 176 1 
666 4 48.4755 -16.9183 -1.89486 0 66 1 
682 4 -22.671 -14.4202 -2.42194 1 82 0 
163 1 23.9627 -16.1677 -4.49558 0 0 0 
520 3 21.3068 -11.0307 -2.05305 -2 119 0 
697 4 -22.4558 -3.22158 -2.13102 0 95 2 
331 2 -3.88862 -3.87972 -0.948524 0 131 0 
283 2 35.2046 -0.263861 -4.39549 1 83 0 
305 2 -2.76186 -42.7218 5.02577 0 106 -1 
450 3 23.0204 -44.2534 4.52419 1 49 0 
759 4 30.4006 -40.1279 4.44421 2 160 0 
437 3 -27.9136 -34.81 5.26128 1 37 1 
324 2 23.0598 -36.0552 2.83938 0 123 0 
768 4 -24.343 -25.8712 3.74573 0 168 0 
663 4 -12.0111 -18.1815 3.26952 0 62 -1 
406 3 -5.34053 -22.124 2.83493 2 5 0 
489 3 12.0079 -20.5844 2.33928 0 89 2 
150 1 21.1943 -19.8296 4.45004 0 0 0 
151 1 21.5624 -19.4132 3.46924 0 0 0 
152 1 22.2409 -20.2547 3.78132 0 0 0 
153 1 22.7279 -19.2739 3.42253 0 0 0 
271 2 22.6117 -18.9044 0.113511 -1 70 0 
527 3 21.1056 -17.4915 4.7754 1 125 0 
149 1 20.6391 -19.0884 3.78487 0 0 0 
148 1 19.8242 -19.2272 4.54194 0 0 0 
147 1 18.6582 -19.0091 4.60063 0 0 0 
566 3 20.8143 -20.2834 2.78801 0 164 0 
310 2 21.3257 -19.6783 0.146001 -1 109 -2 
544 3 23.4653 -17.2305 2.02272 -2 143 -1 
154 1 23.5376 -18.8842 2.86116 0 0 0 
157 1 22.021 -17.9395 0.565594 0 0 0 
155 1 22.5283 -19.0841 2.29776 0 0 0 
156 1 21.7614 -18.4799 1.65906 0 0 0 
268 2 26.3225 -17.3347 1.93459 2 68 1 
317 2 -14.0925 -16.126 0.362342 0 116 -1 
337 2 9.96387 -16.0539 5.4092 -1 136 0 
571 3 22.2153 -15.9724 4.4417 0 170 -2 
443 3 21.2484 -16.6575 0.0777589 1 42 -1 
547 3 -43.0633 -6.58653 4.92097 0 147 -1 
266 2 4.91365 -4.05821 0.92993 -1 64 0 
303 2 41.2388 -4.46715 2.02349 0 102 0 
440 3 45.1284 -0.734969 4.53359 0 39 0 
385 2 -38.0268 -48.7502 6.58566 1 185 0 
619 4 -33.7496 -48.9963 8.0395 2 20 -2 
621 4 -26.7163 -46.9451 9.66504 2 20 0 
675 4 -5.66388 -46.0436 8.89036 0 74 2 
475 3 0.98896 -46.8566 8.55813 -1 74 1 
747 4 38.719 -48.2024 8.35246 1 146 0 
788 4 -19.2133 -39.7157 7.43443 1 186 -1 
514 3 46.7221 -30.6274 6.5116 -1 112 0 
229 2 38.8557 -26.812 5.87405 -1 29 1 
146 1 18.4154 -19.5938 5.65 0 0 0 
529 3 18.0137 -22.1767 9.18238 -1 128 0 
252 2 17.7559 -17.658 8.98007 -1 51 0 
144 1 19.1407 -18.5898 7.48739 0 0 0 
142 1 19.9146 -18.1445 9.07193 0 0 0 
145 1 18.6365 -18.8157 6.47835 0 0 0 
143 1 19.9983 -18.7523 8.12151 0 0 0 
141 1 20.3689 -18.214 10.0165 0 0 0 
139 1 19.3064 -17.5886 10.6904 0 0 0 
140 1 20.5414 -17.3171 10.7284 0 0 0 
367 2 -3.24841 -13.1651 10.8523 -1 166 -2 
589 3 13.9353 -14.2992 10.0209 -1 188 1 
334 2 32.758 -12.5485 7.54136 0 134 -2 
688 4 36.3383 -14.5406 10.1932 -1 86 -1 
417 3 43.1545 -15.8472 7.87175 -2 16 1 
327 2 -10.39 -9.46395 9.21648 1 127 -1 
240 2 -1.80846 -10.3254 10.9258 1 39 0 
250 2 -6.02317 -4.46733 9.40572 1 49 1 
273 2 -20.2724 -45.3447 15.1422 1 72 1 
536 3 -38.1148 -40.5108 15.3637 0 136 -2 
630 4 -30.9 -36.9338 13.1941 2 29 -1 
605 4 -10.2277 -36.9673 16.5227 -1 5 -1 
606 4 19.0555 -33.7095 15.3437 1 5 -2 
242 2 25.6016 -35.7675 15.2184 0 41 0 
543 3 1.05978 -31.0247 13.1262 -1 142 -1 
632 4 44.574 -28.6186 16.0921 0 32 0 
507 3 -41.3667 -24.8189 12.8415 0 106 1 
377 2 13.1547 -26.9409 12.1206 0 176 1 
654 4 -42.9854 -17.1507 14.3432 0 52 1 
255 2 -40.1587 -18.0777 13.1923 1 56 1 
131 1 12.3806 -17.7277 13.737 0 0 0 
130 1 11.6017 -17.0558 14.3944 0 0 0 
341 2 18.0108 -17.0066 14.506 2 141 1 
326 2 17.5658 -16.7784 13.505 0 127 -2 
133 1 14.5115 -17.5219 13.8691 0 0 0 
135 1 16.5444 -17.394 13.3136 0 0 0 
136 1 17.5896 -17.6229 12.7793 0 0 0 
138 1 18.2583 -17.4922 11.2441 0 0 0 
137 1 17.5535 -16.9521 11.925 0 0 0 
132 1 13.3903 -17.5432 14.1681 0 0 0 
134 1 15.4711 -17.158 13.4889 0 0 0 
671 4 -3.35486 -13.1546 12.7083 1 70 1 
127 1 10.6861 -14.4836 15.7762 0 0 0 
569 3 11.9318 -14.4789 14.2681 0 169 1 
126 1 10.6051 -13.5955 16.4504 0 0 0 
128 1 10.9152 -15.56 15.5648 0 0 0 
129 1 11.6021 -16.3866 15.2077 0 0 0 
393 2 18.1461 -13.7779 13.0477 1 192 1 
499 3 22.0824 -16.1986 14.6585 -1 98 2 
212 2 -5.86031 -8.23217 12.5417 3 10 0 
374 2 2.14798 -6.94964 13.8173 -1 173 0 