ITEM: TIMESTEP
0
ITEM: NUMBER OF ATOMS
1400
ITEM: BOX BOUNDS pp pp pp
-5.0000000000000000e+01 5.0000000000000000e+01
-5.0000000000000000e+01 5.0000000000000000e+01
-5.0000000000000000e+01 5.0000000000000000e+01
ITEM: ATOMS id type x y z ix iy iz 
601 3 -25 -25 -50 0 0 0 
602 3 -25 -25 -49 0 1 0 
603 3 -25 -25 -48 0 2 0 
604 3 -25 -25 -47 0 3 0 
605 3 -25 -25 -46 0 4 0 
606 3 -25 -25 -45 0 5 0 
701 3 -26 -25 -50 0 100 0 
702 3 -26 -25 -49 0 101 0 
703 3 -26 -25 -48 0 102 0 
704 3 -26 -25 -47 0 103 0 
705 3 -26 -25 -46 0 104 0 
706 3 -26 -25 -45 0 105 0 
801 3 -27 -25 -50 0 200 0 
802 3 -27 -25 -49 0 201 0 
803 3 -27 -25 -48 0 202 0 
804 3 -27 -25 -47 0 203 0 
805 3 -27 -25 -46 0 204 0 
806 3 -27 -25 -45 0 205 0 
901 3 -28 -25 -50 0 300 0 
902 3 -28 -25 -49 0 301 0 
903 3 -28 -25 -48 0 302 0 
904 3 -28 -25 -47 0 303 0 
905 3 -28 -25 -46 0 304 0 
906 3 -28 -25 -45 0 305 0 
607 3 -25 -25 -44 0 6 0 
608 3 -25 -25 -43 0 7 0 
609 3 -25 -25 -42 0 8 0 
610 3 -25 -25 -41 0 9 0 
611 3 -25 -25 -40 0 10 0 
612 3 -25 -25 -39 0 11 0 
707 3 -26 -25 -44 0 106 0 
708 3 -26 -25 -43 0 107 0 
709 3 -26 -25 -42 0 108 0 
710 3 -26 -25 -41 0 109 0 
711 3 -26 -25 -40 0 110 0 
712 3 -26 -25 -39 0 111 0 
807 3 -27 -25 -44 0 206 0 
808 3 -27 -25 -43 0 207 0 
809 3 -27 -25 -42 0 208 0 
810 3 -27 -25 -41 0 209 0 
811 3 -27 -25 -40 0 210 0 
812 3 -27 -25 -39 0 211 0 
907 3 -28 -25 -44 0 306 0 
908 3 -28 -25 -43 0 307 0 
909 3 -28 -25 -42 0 308 0 
910 3 -28 -25 -41 0 309 0 
911 3 -28 -25 -40 0 310 0 
912 3 -28 -25 -39 0 311 0 
613 3 -25 -25 -38 0 12 0 
614 3 -25 -25 -37 0 13 0 
615 3 -25 -25 -36 0 14 0 
616 3 -25 -25 -35 0 15 0 
617 3 -25 -25 -34 0 16 0 
713 3 -26 -25 -38 0 112 0 
714 3 -26 -25 -37 0 113 0 
715 3 -26 -25 -36 0 114 0 
716 3 -26 -25 -35 0 115 0 
717 3 -26 -25 -34 0 116 0 
813 3 -27 -25 -38 0 212 0 
814 3 -27 -25 -37 0 213 0 
815 3 -27 -25 -36 0 214 0 
816 3 -27 -25 -35 0 215 0 
817 3 -27 -25 -34 0 216 0 
913 3 -28 -25 -38 0 312 0 
914 3 -28 -25 -37 0 313 0 
915 3 -28 -25 -36 0 314 0 
916 3 -28 -25 -35 0 315 0 
917 3 -28 -25 -34 0 316 0 
618 3 -25 -25 -33 0 17 0 
619 3 -25 -25 -32 0 18 0 
620 3 -25 -25 -31 0 19 0 
621 3 -25 -25 -30 0 20 0 
622 3 -25 -25 -29 0 21 0 
623 3 -25 -25 -28 0 22 0 
718 3 -26 -25 -33 0 117 0 
719 3 -26 -25 -32 0 118 0 
720 3 -26 -25 -31 0 119 0 
721 3 -26 -25 -30 0 120 0 
722 3 -26 -25 -29 0 121 0 
723 3 -26 -25 -28 0 122 0 
818 3 -27 -25 -33 0 217 0 
819 3 -27 -25 -32 0 218 0 
820 3 -27 -25 -31 0 219 0 
821 3 -27 -25 -30 0 220 0 
822 3 -27 -25 -29 0 221 0 
823 3 -27 -25 -28 0 222 0 
918 3 -28 -25 -33 0 317 0 
919 3 -28 -25 -32 0 318 0 
920 3 -28 -25 -31 0 319 0 
921 3 -28 -25 -30 0 320 0 
922 3 -28 -25 -29 0 321 0 
923 3 -28 -25 -28 0 322 0 
624 3 -25 -25 -27 0 23 0 
625 3 -25 -25 -26 0 24 0 
626 3 -25 -25 -25 0 25 0 
627 3 -25 -25 -24 0 26 0 
628 3 -25 -25 -23 0 27 0 
724 3 -26 -25 -27 0 123 0 
725 3 -26 -25 -26 0 124 0 
726 3 -26 -25 -25 0 125 0 
727 3 -26 -25 -24 0 126 0 
728 3 -26 -25 -23 0 127 0 
824 3 -27 -25 -27 0 223 0 
825 3 -27 -25 -26 0 224 0 
826 3 -27 -25 -25 0 225 0 
827 3 -27 -25 -24 0 226 0 
828 3 -27 -25 -23 0 227 0 
924 3 -28 -25 -27 0 323 0 
925 3 -28 -25 -26 0 324 0 
926 3 -28 -25 -25 0 325 0 
927 3 -28 -25 -24 0 326 0 
928 3 -28 -25 -23 0 327 0 
629 3 -25 -25 -22 0 28 0 
630 3 -25 -25 -21 0 29 0 
631 3 -25 -25 -20 0 30 0 
632 3 -25 -25 -19 0 31 0 
633 3 -25 -25 -18 0 32 0 
634 3 -25 -25 -17 0 33 0 
729 3 -26 -25 -22 0 128 0 
730 3 -26 -25 -21 0 129 0 
731 3 -26 -25 -20 0 130 0 
732 3 -26 -25 -19 0 131 0 
733 3 -26 -25 -18 0 132 0 
734 3 -26 -25 -17 0 133 0 
829 3 -27 -25 -22 0 228 0 
830 3 -27 -25 -21 0 229 0 
831 3 -27 -25 -20 0 230 0 
832 3 -27 -25 -19 0 231 0 
833 3 -27 -25 -18 0 232 0 
834 3 -27 -25 -17 0 233 0 
929 3 -28 -25 -22 0 328 0 
930 3 -28 -25 -21 0 329 0 
931 3 -28 -25 -20 0 330 0 
932 3 -28 -25 -19 0 331 0 
933 3 -28 -25 -18 0 332 0 
934 3 -28 -25 -17 0 333 0 
635 3 -25 -25 -16 0 34 0 
636 3 -25 -25 -15 0 35 0 
637 3 -25 -25 -14 0 36 0 
638 3 -25 -25 -13 0 37 0 
639 3 -25 -25 -12 0 38 0 
735 3 -26 -25 -16 0 134 0 
736 3 -26 -25 -15 0 135 0 
737 3 -26 -25 -14 0 136 0 
738 3 -26 -25 -13 0 137 0 
739 3 -26 -25 -12 0 138 0 
835 3 -27 -25 -16 0 234 0 
836 3 -27 -25 -15 0 235 0 
837 3 -27 -25 -14 0 236 0 
838 3 -27 -25 -13 0 237 0 
839 3 -27 -25 -12 0 238 0 
935 3 -28 -25 -16 0 334 0 
936 3 -28 -25 -15 0 335 0 
937 3 -28 -25 -14 0 336 0 
938 3 -28 -25 -13 0 337 0 
939 3 -28 -25 -12 0 338 0 
640 3 -25 -25 -11 0 39 0 
641 3 -25 -25 -10 0 40 0 
642 3 -25 -25 -9 0 41 0 
643 3 -25 -25 -8 0 42 0 
644 3 -25 -25 -7 0 43 0 
645 3 -25 -25 -6 0 44 0 
740 3 -26 -25 -11 0 139 0 
741 3 -26 -25 -10 0 140 0 
742 3 -26 -25 -9 0 141 0 
743 3 -26 -25 -8 0 142 0 
744 3 -26 -25 -7 0 143 0 
745 3 -26 -25 -6 0 144 0 
840 3 -27 -25 -11 0 239 0 
841 3 -27 -25 -10 0 240 0 
842 3 -27 -25 -9 0 241 0 
843 3 -27 -25 -8 0 242 0 
844 3 -27 -25 -7 0 243 0 
845 3 -27 -25 -6 0 244 0 
940 3 -28 -25 -11 0 339 0 
941 3 -28 -25 -10 0 340 0 
942 3 -28 -25 -9 0 341 0 
943 3 -28 -25 -8 0 342 0 
944 3 -28 -25 -7 0 343 0 
945 3 -28 -25 -6 0 344 0 
646 3 -25 -25 -5 0 45 0 
647 3 -25 -25 -4 0 46 0 
648 3 -25 -25 -3 0 47 0 
649 3 -25 -25 -2 0 48 0 
650 3 -25 -25 -1 0 49 0 
746 3 -26 -25 -5 0 145 0 
747 3 -26 -25 -4 0 146 0 
748 3 -26 -25 -3 0 147 0 
749 3 -26 -25 -2 0 148 0 
750 3 -26 -25 -1 0 149 0 
846 3 -27 -25 -5 0 245 0 
847 3 -27 -25 -4 0 246 0 
848 3 -27 -25 -3 0 247 0 
849 3 -27 -25 -2 0 248 0 
850 3 -27 -25 -1 0 249 0 
946 3 -28 -25 -5 0 345 0 
947 3 -28 -25 -4 0 346 0 
948 3 -28 -25 -3 0 347 0 
949 3 -28 -25 -2 0 348 0 
950 3 -28 -25 -1 0 349 0 
651 3 -25 -25 0 0 50 0 
652 3 -25 -25 1 0 51 0 
653 3 -25 -25 2 0 52 0 
654 3 -25 -25 3 0 53 0 
655 3 -25 -25 4 0 54 0 
656 3 -25 -25 5 0 55 0 
751 3 -26 -25 0 0 150 0 
752 3 -26 -25 1 0 151 0 
753 3 -26 -25 2 0 152 0 
754 3 -26 -25 3 0 153 0 
755 3 -26 -25 4 0 154 0 
756 3 -26 -25 5 0 155 0 
851 3 -27 -25 0 0 250 0 
852 3 -27 -25 1 0 251 0 
853 3 -27 -25 2 0 252 0 
854 3 -27 -25 3 0 253 0 
855 3 -27 -25 4 0 254 0 
856 3 -27 -25 5 0 255 0 
951 3 -28 -25 0 0 350 0 
952 3 -28 -25 1 0 351 0 
953 3 -28 -25 2 0 352 0 
954 3 -28 -25 3 0 353 0 
955 3 -28 -25 4 0 354 0 
956 3 -28 -25 5 0 355 0 
657 3 -25 -25 6 0 56 0 
658 3 -25 -25 7 0 57 0 
659 3 -25 -25 8 0 58 0 
660 3 -25 -25 9 0 59 0 
661 3 -25 -25 10 0 60 0 
662 3 -25 -25 11 0 61 0 
757 3 -26 -25 6 0 156 0 
758 3 -26 -25 7 0 157 0 
759 3 -26 -25 8 0 158 0 
760 3 -26 -25 9 0 159 0 
761 3 -26 -25 10 0 160 0 
762 3 -26 -25 11 0 161 0 
857 3 -27 -25 6 0 256 0 
858 3 -27 -25 7 0 257 0 
859 3 -27 -25 8 0 258 0 
860 3 -27 -25 9 0 259 0 
861 3 -27 -25 10 0 260 0 
862 3 -27 -25 11 0 261 0 
957 3 -28 -25 6 0 356 0 
958 3 -28 -25 7 0 357 0 
959 3 -28 -25 8 0 358 0 
960 3 -28 -25 9 0 359 0 
961 3 -28 -25 10 0 360 0 
962 3 -28 -25 11 0 361 0 
663 3 -25 -25 12 0 62 0 
664 3 -25 -25 13 0 63 0 
665 3 -25 -25 14 0 64 0 
666 3 -25 -25 15 0 65 0 
667 3 -25 -25 16 0 66 0 
763 3 -26 -25 12 0 162 0 
764 3 -26 -25 13 0 163 0 
765 3 -26 -25 14 0 164 0 
766 3 -26 -25 15 0 165 0 
767 3 -26 -25 16 0 166 0 
863 3 -27 -25 12 0 262 0 
864 3 -27 -25 13 0 263 0 
865 3 -27 -25 14 0 264 0 
866 3 -27 -25 15 0 265 0 
867 3 -27 -25 16 0 266 0 
963 3 -28 -25 12 0 362 0 
964 3 -28 -25 13 0 363 0 
965 3 -28 -25 14 0 364 0 
966 3 -28 -25 15 0 365 0 
967 3 -28 -25 16 0 366 0 
668 3 -25 -25 17 0 67 0 
669 3 -25 -25 18 0 68 0 
670 3 -25 -25 19 0 69 0 
671 3 -25 -25 20 0 70 0 
672 3 -25 -25 21 0 71 0 
673 3 -25 -25 22 0 72 0 
768 3 -26 -25 17 0 167 0 
769 3 -26 -25 18 0 168 0 
770 3 -26 -25 19 0 169 0 
771 3 -26 -25 20 0 170 0 
772 3 -26 -25 21 0 171 0 
773 3 -26 -25 22 0 172 0 
868 3 -27 -25 17 0 267 0 
869 3 -27 -25 18 0 268 0 
870 3 -27 -25 19 0 269 0 
871 3 -27 -25 20 0 270 0 
872 3 -27 -25 21 0 271 0 
873 3 -27 -25 22 0 272 0 
968 3 -28 -25 17 0 367 0 
969 3 -28 -25 18 0 368 0 
970 3 -28 -25 19 0 369 0 
971 3 -28 -25 20 0 370 0 
972 3 -28 -25 21 0 371 0 
973 3 -28 -25 22 0 372 0 
674 3 -25 -25 23 0 73 0 
675 3 -25 -25 24 0 74 0 
676 3 -25 -25 25 0 75 0 
677 3 -25 -25 26 0 76 0 
678 3 -25 -25 27 0 77 0 
774 3 -26 -25 23 0 173 0 
775 3 -26 -25 24 0 174 0 
776 3 -26 -25 25 0 175 0 
777 3 -26 -25 26 0 176 0 
778 3 -26 -25 27 0 177 0 
874 3 -27 -25 23 0 273 0 
875 3 -27 -25 24 0 274 0 
876 3 -27 -25 25 0 275 0 
877 3 -27 -25 26 0 276 0 
878 3 -27 -25 27 0 277 0 
974 3 -28 -25 23 0 373 0 
975 3 -28 -25 24 0 374 0 
976 3 -28 -25 25 0 375 0 
977 3 -28 -25 26 0 376 0 
978 3 -28 -25 27 0 377 0 
679 3 -25 -25 28 0 78 0 
680 3 -25 -25 29 0 79 0 
681 3 -25 -25 30 0 80 0 
682 3 -25 -25 31 0 81 0 
683 3 -25 -25 32 0 82 0 
684 3 -25 -25 33 0 83 0 
779 3 -26 -25 28 0 178 0 
780 3 -26 -25 29 0 179 0 
781 3 -26 -25 30 0 180 0 
782 3 -26 -25 31 0 181 0 
783 3 -26 -25 32 0 182 0 
784 3 -26 -25 33 0 183 0 
879 3 -27 -25 28 0 278 0 
880 3 -27 -25 29 0 279 0 
881 3 -27 -25 30 0 280 0 
882 3 -27 -25 31 0 281 0 
883 3 -27 -25 32 0 282 0 
884 3 -27 -25 33 0 283 0 
979 3 -28 -25 28 0 378 0 
980 3 -28 -25 29 0 379 0 
981 3 -28 -25 30 0 380 0 
982 3 -28 -25 31 0 381 0 
983 3 -28 -25 32 0 382 0 
984 3 -28 -25 33 0 383 0 
685 3 -25 -25 34 0 84 0 
686 3 -25 -25 35 0 85 0 
687 3 -25 -25 36 0 86 0 
688 3 -25 -25 37 0 87 0 
689 3 -25 -25 38 0 88 0 
785 3 -26 -25 34 0 184 0 
786 3 -26 -25 35 0 185 0 
787 3 -26 -25 36 0 186 0 
788 3 -26 -25 37 0 187 0 
789 3 -26 -25 38 0 188 0 
885 3 -27 -25 34 0 284 0 
886 3 -27 -25 35 0 285 0 
887 3 -27 -25 36 0 286 0 
888 3 -27 -25 37 0 287 0 
889 3 -27 -25 38 0 288 0 
985 3 -28 -25 34 0 384 0 
986 3 -28 -25 35 0 385 0 
987 3 -28 -25 36 0 386 0 
988 3 -28 -25 37 0 387 0 
989 3 -28 -25 38 0 388 0 
690 3 -25 -25 39 0 89 0 
691 3 -25 -25 40 0 90 0 
692 3 -25 -25 41 0 91 0 
693 3 -25 -25 42 0 92 0 
694 3 -25 -25 43 0 93 0 
695 3 -25 -25 44 0 94 0 
790 3 -26 -25 39 0 189 0 
791 3 -26 -25 40 0 190 0 
792 3 -26 -25 41 0 191 0 
793 3 -26 -25 42 0 192 0 
794 3 -26 -25 43 0 193 0 
795 3 -26 -25 44 0 194 0 
890 3 -27 -25 39 0 289 0 
891 3 -27 -25 40 0 290 0 
892 3 -27 -25 41 0 291 0 
893 3 -27 -25 42 0 292 0 
894 3 -27 -25 43 0 293 0 
895 3 -27 -25 44 0 294 0 
990 3 -28 -25 39 0 389 0 
991 3 -28 -25 40 0 390 0 
992 3 -28 -25 41 0 391 0 
993 3 -28 -25 42 0 392 0 
994 3 -28 -25 43 0 393 0 
995 3 -28 -25 44 0 394 0 
696 3 -25 -25 45 0 95 0 
697 3 -25 -25 46 0 96 0 
698 3 -25 -25 47 0 97 0 
699 3 -25 -25 48 0 98 0 
700 3 -25 -25 49 0 99 0 
796 3 -26 -25 45 0 195 0 
797 3 -26 -25 46 0 196 0 
798 3 -26 -25 47 0 197 0 
799 3 -26 -25 48 0 198 0 
800 3 -26 -25 49 0 199 0 
896 3 -27 -25 45 0 295 0 
897 3 -27 -25 46 0 296 0 
898 3 -27 -25 47 0 297 0 
899 3 -27 -25 48 0 298 0 
900 3 -27 -25 49 0 299 0 
996 3 -28 -25 45 0 395 0 
997 3 -28 -25 46 0 396 0 
998 3 -28 -25 47 0 397 0 
999 3 -28 -25 48 0 398 0 
1000 3 -28 -25 49 0 399 0 
1 1 0 0 -49 0 0 0 
2 1 0 0 -48 0 0 0 
3 1 0 0 -47 0 0 0 
4 1 0 0 -46 0 0 0 
5 1 0 0 -45 0 0 0 
100 1 0 0 -50 0 0 1 
101 1 1 0 -50 0 0 1 
196 1 1 0 -45 0 0 0 
197 1 1 0 -46 0 0 0 
198 1 1 0 -47 0 0 0 
199 1 1 0 -48 0 0 0 
200 1 1 0 -49 0 0 0 
1201 4 18 20 -50 0 200 0 
1202 4 18 20 -49 0 201 0 
1203 4 18 20 -48 0 202 0 
1204 4 18 20 -47 0 203 0 
1205 4 18 20 -46 0 204 0 
1206 4 18 20 -45 0 205 0 
1301 4 17 20 -50 0 300 0 
1302 4 17 20 -49 0 301 0 
1303 4 17 20 -48 0 302 0 
1304 4 17 20 -47 0 303 0 
1305 4 17 20 -46 0 304 0 
1306 4 17 20 -45 0 305 0 
1001 4 20 20 -50 0 0 0 
1002 4 20 20 -49 0 1 0 
1003 4 20 20 -48 0 2 0 
1004 4 20 20 -47 0 3 0 
1005 4 20 20 -46 0 4 0 
1006 4 20 20 -45 0 5 0 
1101 4 19 20 -50 0 100 0 
1102 4 19 20 -49 0 101 0 
1103 4 19 20 -48 0 102 0 
1104 4 19 20 -47 0 103 0 
1105 4 19 20 -46 0 104 0 
1106 4 19 20 -45 0 105 0 
301 2 39 40 -50 0 100 0 
302 2 39 40 -49 0 101 0 
303 2 39 40 -48 0 102 0 
304 2 39 40 -47 0 103 0 
305 2 39 40 -46 0 104 0 
306 2 39 40 -45 0 105 0 
401 2 38 40 -50 0 200 0 
402 2 38 40 -49 0 201 0 
403 2 38 40 -48 0 202 0 
404 2 38 40 -47 0 203 0 
405 2 38 40 -46 0 204 0 
406 2 38 40 -45 0 205 0 
501 2 37 40 -50 0 300 0 
502 2 37 40 -49 0 301 0 
503 2 37 40 -48 0 302 0 
504 2 37 40 -47 0 303 0 
505 2 37 40 -46 0 304 0 
506 2 37 40 -45 0 305 0 
201 2 40 40 -50 0 0 0 
202 2 40 40 -49 0 1 0 
203 2 40 40 -48 0 2 0 
204 2 40 40 -47 0 3 0 
205 2 40 40 -46 0 4 0 
206 2 40 40 -45 0 5 0 
6 1 0 0 -44 0 0 0 
7 1 0 0 -43 0 0 0 
8 1 0 0 -42 0 0 0 
9 1 0 0 -41 0 0 0 
10 1 0 0 -40 0 0 0 
11 1 0 0 -39 0 0 0 
190 1 1 0 -39 0 0 0 
191 1 1 0 -40 0 0 0 
192 1 1 0 -41 0 0 0 
193 1 1 0 -42 0 0 0 
194 1 1 0 -43 0 0 0 
195 1 1 0 -44 0 0 0 
1207 4 18 20 -44 0 206 0 
1208 4 18 20 -43 0 207 0 
1209 4 18 20 -42 0 208 0 
1210 4 18 20 -41 0 209 0 
1211 4 18 20 -40 0 210 0 
1212 4 18 20 -39 0 211 0 
1307 4 17 20 -44 0 306 0 
1308 4 17 20 -43 0 307 0 
1309 4 17 20 -42 0 308 0 
1310 4 17 20 -41 0 309 0 
1311 4 17 20 -40 0 310 0 
1312 4 17 20 -39 0 311 0 
1007 4 20 20 -44 0 6 0 
1008 4 20 20 -43 0 7 0 
1009 4 20 20 -42 0 8 0 
1010 4 20 20 -41 0 9 0 
1011 4 20 20 -40 0 10 0 
1012 4 20 20 -39 0 11 0 
1107 4 19 20 -44 0 106 0 
1108 4 19 20 -43 0 107 0 
1109 4 19 20 -42 0 108 0 
1110 4 19 20 -41 0 109 0 
1111 4 19 20 -40 0 110 0 
1112 4 19 20 -39 0 111 0 
307 2 39 40 -44 0 106 0 
308 2 39 40 -43 0 107 0 
309 2 39 40 -42 0 108 0 
310 2 39 40 -41 0 109 0 
311 2 39 40 -40 0 110 0 
312 2 39 40 -39 0 111 0 
407 2 38 40 -44 0 206 0 
408 2 38 40 -43 0 207 0 
409 2 38 40 -42 0 208 0 
410 2 38 40 -41 0 209 0 
411 2 38 40 -40 0 210 0 
412 2 38 40 -39 0 211 0 
507 2 37 40 -44 0 306 0 
508 2 37 40 -43 0 307 0 
509 2 37 40 -42 0 308 0 
510 2 37 40 -41 0 309 0 
511 2 37 40 -40 0 310 0 
512 2 37 40 -39 0 311 0 
207 2 40 40 -44 0 6 0 
208 2 40 40 -43 0 7 0 
209 2 40 40 -42 0 8 0 
210 2 40 40 -41 0 9 0 
211 2 40 40 -40 0 10 0 
212 2 40 40 -39 0 11 0 
12 1 0 0 -38 0 0 0 
13 1 0 0 -37 0 0 0 
14 1 0 0 -36 0 0 0 
15 1 0 0 -35 0 0 0 
16 1 0 0 -34 0 0 0 
185 1 1 0 -34 0 0 0 
186 1 1 0 -35 0 0 0 
187 1 1 0 -36 0 0 0 
188 1 1 0 -37 0 0 0 
189 1 1 0 -38 0 0 0 
1213 4 18 20 -38 0 212 0 
1214 4 18 20 -37 0 213 0 
1215 4 18 20 -36 0 214 0 
1216 4 18 20 -35 0 215 0 
1217 4 18 20 -34 0 216 0 
1313 4 17 20 -38 0 312 0 
1314 4 17 20 -37 0 313 0 
1315 4 17 20 -36 0 314 0 
1316 4 17 20 -35 0 315 0 
1317 4 17 20 -34 0 316 0 
1013 4 20 20 -38 0 12 0 
1014 4 20 20 -37 0 13 0 
1015 4 20 20 -36 0 14 0 
1016 4 20 20 -35 0 15 0 
1017 4 20 20 -34 0 16 0 
1113 4 19 20 -38 0 112 0 
1114 4 19 20 -37 0 113 0 
1115 4 19 20 -36 0 114 0 
1116 4 19 20 -35 0 115 0 
1117 4 19 20 -34 0 116 0 
313 2 39 40 -38 0 112 0 
314 2 39 40 -37 0 113 0 
315 2 39 40 -36 0 114 0 
316 2 39 40 -35 0 115 0 
317 2 39 40 -34 0 116 0 
413 2 38 40 -38 0 212 0 
414 2 38 40 -37 0 213 0 
415 2 38 40 -36 0 214 0 
416 2 38 40 -35 0 215 0 
417 2 38 40 -34 0 216 0 
513 2 37 40 -38 0 312 0 
514 2 37 40 -37 0 313 0 
515 2 37 40 -36 0 314 0 
516 2 37 40 -35 0 315 0 
517 2 37 40 -34 0 316 0 
213 2 40 40 -38 0 12 0 
214 2 40 40 -37 0 13 0 
215 2 40 40 -36 0 14 0 
216 2 40 40 -35 0 15 0 
217 2 40 40 -34 0 16 0 
17 1 0 0 -33 0 0 0 
18 1 0 0 -32 0 0 0 
19 1 0 0 -31 0 0 0 
20 1 0 0 -30 0 0 0 
21 1 0 0 -29 0 0 0 
22 1 0 0 -28 0 0 0 
179 1 1 0 -28 0 0 0 
180 1 1 0 -29 0 0 0 
181 1 1 0 -30 0 0 0 
182 1 1 0 -31 0 0 0 
183 1 1 0 -32 0 0 0 
184 1 1 0 -33 0 0 0 
1218 4 18 20 -33 0 217 0 
1219 4 18 20 -32 0 218 0 
1220 4 18 20 -31 0 219 0 
1221 4 18 20 -30 0 220 0 
1222 4 18 20 -29 0 221 0 
1223 4 18 20 -28 0 222 0 
1318 4 17 20 -33 0 317 0 
1319 4 17 20 -32 0 318 0 
1320 4 17 20 -31 0 319 0 
1321 4 17 20 -30 0 320 0 
1322 4 17 20 -29 0 321 0 
1323 4 17 20 -28 0 322 0 
1018 4 20 20 -33 0 17 0 
1019 4 20 20 -32 0 18 0 
1020 4 20 20 -31 0 19 0 
1021 4 20 20 -30 0 20 0 
1022 4 20 20 -29 0 21 0 
1023 4 20 20 -28 0 22 0 
1118 4 19 20 -33 0 117 0 
1119 4 19 20 -32 0 118 0 
1120 4 19 20 -31 0 119 0 
1121 4 19 20 -30 0 120 0 
1122 4 19 20 -29 0 121 0 
1123 4 19 20 -28 0 122 0 
318 2 39 40 -33 0 117 0 
319 2 39 40 -32 0 118 0 
320 2 39 40 -31 0 119 0 
321 2 39 40 -30 0 120 0 
322 2 39 40 -29 0 121 0 
323 2 39 40 -28 0 122 0 
418 2 38 40 -33 0 217 0 
419 2 38 40 -32 0 218 0 
420 2 38 40 -31 0 219 0 
421 2 38 40 -30 0 220 0 
422 2 38 40 -29 0 221 0 
423 2 38 40 -28 0 222 0 
518 2 37 40 -33 0 317 0 
519 2 37 40 -32 0 318 0 
520 2 37 40 -31 0 319 0 
521 2 37 40 -30 0 320 0 
522 2 37 40 -29 0 321 0 
523 2 37 40 -28 0 322 0 
218 2 40 40 -33 0 17 0 
219 2 40 40 -32 0 18 0 
220 2 40 40 -31 0 19 0 
221 2 40 40 -30 0 20 0 
222 2 40 40 -29 0 21 0 
223 2 40 40 -28 0 22 0 
23 1 0 0 -27 0 0 0 
24 1 0 0 -26 0 0 0 
25 1 0 0 -25 0 0 0 
26 1 0 0 -24 0 0 0 
27 1 0 0 -23 0 0 0 
174 1 1 0 -23 0 0 0 
175 1 1 0 -24 0 0 0 
176 1 1 0 -25 0 0 0 
177 1 1 0 -26 0 0 0 
178 1 1 0 -27 0 0 0 
1224 4 18 20 -27 0 223 0 
1225 4 18 20 -26 0 224 0 
1226 4 18 20 -25 0 225 0 
1227 4 18 20 -24 0 226 0 
1228 4 18 20 -23 0 227 0 
1324 4 17 20 -27 0 323 0 
1325 4 17 20 -26 0 324 0 
1326 4 17 20 -25 0 325 0 
1327 4 17 20 -24 0 326 0 
1328 4 17 20 -23 0 327 0 
1024 4 20 20 -27 0 23 0 
1025 4 20 20 -26 0 24 0 
1026 4 20 20 -25 0 25 0 
1027 4 20 20 -24 0 26 0 
1028 4 20 20 -23 0 27 0 
1124 4 19 20 -27 0 123 0 
1125 4 19 20 -26 0 124 0 
1126 4 19 20 -25 0 125 0 
1127 4 19 20 -24 0 126 0 
1128 4 19 20 -23 0 127 0 
324 2 39 40 -27 0 123 0 
325 2 39 40 -26 0 124 0 
326 2 39 40 -25 0 125 0 
327 2 39 40 -24 0 126 0 
328 2 39 40 -23 0 127 0 
424 2 38 40 -27 0 223 0 
425 2 38 40 -26 0 224 0 
426 2 38 40 -25 0 225 0 
427 2 38 40 -24 0 226 0 
428 2 38 40 -23 0 227 0 
524 2 37 40 -27 0 323 0 
525 2 37 40 -26 0 324 0 
526 2 37 40 -25 0 325 0 
527 2 37 40 -24 0 326 0 
528 2 37 40 -23 0 327 0 
224 2 40 40 -27 0 23 0 
225 2 40 40 -26 0 24 0 
226 2 40 40 -25 0 25 0 
227 2 40 40 -24 0 26 0 
228 2 40 40 -23 0 27 0 
28 1 0 0 -22 0 0 0 
29 1 0 0 -21 0 0 0 
30 1 0 0 -20 0 0 0 
31 1 0 0 -19 0 0 0 
32 1 0 0 -18 0 0 0 
33 1 0 0 -17 0 0 0 
168 1 1 0 -17 0 0 0 
169 1 1 0 -18 0 0 0 
170 1 1 0 -19 0 0 0 
171 1 1 0 -20 0 0 0 
172 1 1 0 -21 0 0 0 
173 1 1 0 -22 0 0 0 
1229 4 18 20 -22 0 228 0 
1230 4 18 20 -21 0 229 0 
1231 4 18 20 -20 0 230 0 
1232 4 18 20 -19 0 231 0 
1233 4 18 20 -18 0 232 0 
1234 4 18 20 -17 0 233 0 
1329 4 17 20 -22 0 328 0 
1330 4 17 20 -21 0 329 0 
1331 4 17 20 -20 0 330 0 
1332 4 17 20 -19 0 331 0 
1333 4 17 20 -18 0 332 0 
1334 4 17 20 -17 0 333 0 
1029 4 20 20 -22 0 28 0 
1030 4 20 20 -21 0 29 0 
1031 4 20 20 -20 0 30 0 
1032 4 20 20 -19 0 31 0 
1033 4 20 20 -18 0 32 0 
1034 4 20 20 -17 0 33 0 
1129 4 19 20 -22 0 128 0 
1130 4 19 20 -21 0 129 0 
1131 4 19 20 -20 0 130 0 
1132 4 19 20 -19 0 131 0 
1133 4 19 20 -18 0 132 0 
1134 4 19 20 -17 0 133 0 
329 2 39 40 -22 0 128 0 
330 2 39 40 -21 0 129 0 
331 2 39 40 -20 0 130 0 
332 2 39 40 -19 0 131 0 
333 2 39 40 -18 0 132 0 
334 2 39 40 -17 0 133 0 
429 2 38 40 -22 0 228 0 
430 2 38 40 -21 0 229 0 
431 2 38 40 -20 0 230 0 
432 2 38 40 -19 0 231 0 
433 2 38 40 -18 0 232 0 
434 2 38 40 -17 0 233 0 
529 2 37 40 -22 0 328 0 
530 2 37 40 -21 0 329 0 
531 2 37 40 -20 0 330 0 
532 2 37 40 -19 0 331 0 
533 2 37 40 -18 0 332 0 
534 2 37 40 -17 0 333 0 
229 2 40 40 -22 0 28 0 
230 2 40 40 -21 0 29 0 
231 2 40 40 -20 0 30 0 
232 2 40 40 -19 0 31 0 
233 2 40 40 -18 0 32 0 
234 2 40 40 -17 0 33 0 
34 1 0 0 -16 0 0 0 
35 1 0 0 -15 0 0 0 
36 1 0 0 -14 0 0 0 
37 1 0 0 -13 0 0 0 
38 1 0 0 -12 0 0 0 
163 1 1 0 -12 0 0 0 
164 1 1 0 -13 0 0 0 
165 1 1 0 -14 0 0 0 
166 1 1 0 -15 0 0 0 
167 1 1 0 -16 0 0 0 
1235 4 18 20 -16 0 234 0 
1236 4 18 20 -15 0 235 0 
1237 4 18 20 -14 0 236 0 
1238 4 18 20 -13 0 237 0 
1239 4 18 20 -12 0 238 0 
1335 4 17 20 -16 0 334 0 
1336 4 17 20 -15 0 335 0 
1337 4 17 20 -14 0 336 0 
1338 4 17 20 -13 0 337 0 
1339 4 17 20 -12 0 338 0 
1035 4 20 20 -16 0 34 0 
1036 4 20 20 -15 0 35 0 
1037 4 20 20 -14 0 36 0 
1038 4 20 20 -13 0 37 0 
1039 4 20 20 -12 0 38 0 
1135 4 19 20 -16 0 134 0 
1136 4 19 20 -15 0 135 0 
1137 4 19 20 -14 0 136 0 
1138 4 19 20 -13 0 137 0 
1139 4 19 20 -12 0 138 0 
335 2 39 40 -16 0 134 0 
336 2 39 40 -15 0 135 0 
337 2 39 40 -14 0 136 0 
338 2 39 40 -13 0 137 0 
339 2 39 40 -12 0 138 0 
435 2 38 40 -16 0 234 0 
436 2 38 40 -15 0 235 0 
437 2 38 40 -14 0 236 0 
438 2 38 40 -13 0 237 0 
439 2 38 40 -12 0 238 0 
535 2 37 40 -16 0 334 0 
536 2 37 40 -15 0 335 0 
537 2 37 40 -14 0 336 0 
538 2 37 40 -13 0 337 0 
539 2 37 40 -12 0 338 0 
235 2 40 40 -16 0 34 0 
236 2 40 40 -15 0 35 0 
237 2 40 40 -14 0 36 0 
238 2 40 40 -13 0 37 0 
239 2 40 40 -12 0 38 0 
39 1 0 0 -11 0 0 0 
40 1 0 0 -10 0 0 0 
41 1 0 0 -9 0 0 0 
42 1 0 0 -8 0 0 0 
43 1 0 0 -7 0 0 0 
44 1 0 0 -6 0 0 0 
157 1 1 0 -6 0 0 0 
158 1 1 0 -7 0 0 0 
159 1 1 0 -8 0 0 0 
160 1 1 0 -9 0 0 0 
161 1 1 0 -10 0 0 0 
162 1 1 0 -11 0 0 0 
1240 4 18 20 -11 0 239 0 
1241 4 18 20 -10 0 240 0 
1242 4 18 20 -9 0 241 0 
1243 4 18 20 -8 0 242 0 
1244 4 18 20 -7 0 243 0 
1245 4 18 20 -6 0 244 0 
1340 4 17 20 -11 0 339 0 
1341 4 17 20 -10 0 340 0 
1342 4 17 20 -9 0 341 0 
1343 4 17 20 -8 0 342 0 
1344 4 17 20 -7 0 343 0 
1345 4 17 20 -6 0 344 0 
1040 4 20 20 -11 0 39 0 
1041 4 20 20 -10 0 40 0 
1042 4 20 20 -9 0 41 0 
1043 4 20 20 -8 0 42 0 
1044 4 20 20 -7 0 43 0 
1045 4 20 20 -6 0 44 0 
1140 4 19 20 -11 0 139 0 
1141 4 19 20 -10 0 140 0 
1142 4 19 20 -9 0 141 0 
1143 4 19 20 -8 0 142 0 
1144 4 19 20 -7 0 143 0 
1145 4 19 20 -6 0 144 0 
340 2 39 40 -11 0 139 0 
341 2 39 40 -10 0 140 0 
342 2 39 40 -9 0 141 0 
343 2 39 40 -8 0 142 0 
344 2 39 40 -7 0 143 0 
345 2 39 40 -6 0 144 0 
440 2 38 40 -11 0 239 0 
441 2 38 40 -10 0 240 0 
442 2 38 40 -9 0 241 0 
443 2 38 40 -8 0 242 0 
444 2 38 40 -7 0 243 0 
445 2 38 40 -6 0 244 0 
540 2 37 40 -11 0 339 0 
541 2 37 40 -10 0 340 0 
542 2 37 40 -9 0 341 0 
543 2 37 40 -8 0 342 0 
544 2 37 40 -7 0 343 0 
545 2 37 40 -6 0 344 0 
240 2 40 40 -11 0 39 0 
241 2 40 40 -10 0 40 0 
242 2 40 40 -9 0 41 0 
243 2 40 40 -8 0 42 0 
244 2 40 40 -7 0 43 0 
245 2 40 40 -6 0 44 0 
45 1 0 0 -5 0 0 0 
46 1 0 0 -4 0 0 0 
47 1 0 0 -3 0 0 0 
48 1 0 0 -2 0 0 0 
49 1 0 0 -1 0 0 0 
152 1 1 0 -1 0 0 0 
153 1 1 0 -2 0 0 0 
154 1 1 0 -3 0 0 0 
155 1 1 0 -4 0 0 0 
156 1 1 0 -5 0 0 0 
1246 4 18 20 -5 0 245 0 
1247 4 18 20 -4 0 246 0 
1248 4 18 20 -3 0 247 0 
1249 4 18 20 -2 0 248 0 
1250 4 18 20 -1 0 249 0 
1346 4 17 20 -5 0 345 0 
1347 4 17 20 -4 0 346 0 
1348 4 17 20 -3 0 347 0 
1349 4 17 20 -2 0 348 0 
1350 4 17 20 -1 0 349 0 
1046 4 20 20 -5 0 45 0 
1047 4 20 20 -4 0 46 0 
1048 4 20 20 -3 0 47 0 
1049 4 20 20 -2 0 48 0 
1050 4 20 20 -1 0 49 0 
1146 4 19 20 -5 0 145 0 
1147 4 19 20 -4 0 146 0 
1148 4 19 20 -3 0 147 0 
1149 4 19 20 -2 0 148 0 
1150 4 19 20 -1 0 149 0 
346 2 39 40 -5 0 145 0 
347 2 39 40 -4 0 146 0 
348 2 39 40 -3 0 147 0 
349 2 39 40 -2 0 148 0 
350 2 39 40 -1 0 149 0 
446 2 38 40 -5 0 245 0 
447 2 38 40 -4 0 246 0 
448 2 38 40 -3 0 247 0 
449 2 38 40 -2 0 248 0 
450 2 38 40 -1 0 249 0 
546 2 37 40 -5 0 345 0 
547 2 37 40 -4 0 346 0 
548 2 37 40 -3 0 347 0 
549 2 37 40 -2 0 348 0 
550 2 37 40 -1 0 349 0 
246 2 40 40 -5 0 45 0 
247 2 40 40 -4 0 46 0 
248 2 40 40 -3 0 47 0 
249 2 40 40 -2 0 48 0 
250 2 40 40 -1 0 49 0 
50 1 0 0 0 0 0 0 
51 1 0 0 1 0 0 0 
52 1 0 0 2 0 0 0 
53 1 0 0 3 0 0 0 
54 1 0 0 4 0 0 0 
55 1 0 0 5 0 0 0 
146 1 1 0 5 0 0 0 
147 1 1 0 4 0 0 0 
148 1 1 0 3 0 0 0 
149 1 1 0 2 0 0 0 
150 1 1 0 1 0 0 0 
151 1 1 0 0 0 0 0 
1251 4 18 20 0 0 250 0 
1252 4 18 20 1 0 251 0 
1253 4 18 20 2 0 252 0 
1254 4 18 20 3 0 253 0 
1255 4 18 20 4 0 254 0 
1256 4 18 20 5 0 255 0 
1351 4 17 20 0 0 350 0 
1352 4 17 20 1 0 351 0 
1353 4 17 20 2 0 352 0 
1354 4 17 20 3 0 353 0 
1355 4 17 20 4 0 354 0 
1356 4 17 20 5 0 355 0 
1051 4 20 20 0 0 50 0 
1052 4 20 20 1 0 51 0 
1053 4 20 20 2 0 52 0 
1054 4 20 20 3 0 53 0 
1055 4 20 20 4 0 54 0 
1056 4 20 20 5 0 55 0 
1151 4 19 20 0 0 150 0 
1152 4 19 20 1 0 151 0 
1153 4 19 20 2 0 152 0 
1154 4 19 20 3 0 153 0 
1155 4 19 20 4 0 154 0 
1156 4 19 20 5 0 155 0 
351 2 39 40 0 0 150 0 
352 2 39 40 1 0 151 0 
353 2 39 40 2 0 152 0 
354 2 39 40 3 0 153 0 
355 2 39 40 4 0 154 0 
356 2 39 40 5 0 155 0 
451 2 38 40 0 0 250 0 
452 2 38 40 1 0 251 0 
453 2 38 40 2 0 252 0 
454 2 38 40 3 0 253 0 
455 2 38 40 4 0 254 0 
456 2 38 40 5 0 255 0 
551 2 37 40 0 0 350 0 
552 2 37 40 1 0 351 0 
553 2 37 40 2 0 352 0 
554 2 37 40 3 0 353 0 
555 2 37 40 4 0 354 0 
556 2 37 40 5 0 355 0 
251 2 40 40 0 0 50 0 
252 2 40 40 1 0 51 0 
253 2 40 40 2 0 52 0 
254 2 40 40 3 0 53 0 
255 2 40 40 4 0 54 0 
256 2 40 40 5 0 55 0 
56 1 0 0 6 0 0 0 
57 1 0 0 7 0 0 0 
58 1 0 0 8 0 0 0 
59 1 0 0 9 0 0 0 
60 1 0 0 10 0 0 0 
61 1 0 0 11 0 0 0 
140 1 1 0 11 0 0 0 
141 1 1 0 10 0 0 0 
142 1 1 0 9 0 0 0 
143 1 1 0 8 0 0 0 
144 1 1 0 7 0 0 0 
145 1 1 0 6 0 0 0 
1257 4 18 20 6 0 256 0 
1258 4 18 20 7 0 257 0 
1259 4 18 20 8 0 258 0 
1260 4 18 20 9 0 259 0 
1261 4 18 20 10 0 260 0 
1262 4 18 20 11 0 261 0 
1357 4 17 20 6 0 356 0 
1358 4 17 20 7 0 357 0 
1359 4 17 20 8 0 358 0 
1360 4 17 20 9 0 359 0 
1361 4 17 20 10 0 360 0 
1362 4 17 20 11 0 361 0 
1057 4 20 20 6 0 56 0 
1058 4 20 20 7 0 57 0 
1059 4 20 20 8 0 58 0 
1060 4 20 20 9 0 59 0 
1061 4 20 20 10 0 60 0 
1062 4 20 20 11 0 61 0 
1157 4 19 20 6 0 156 0 
1158 4 19 20 7 0 157 0 
1159 4 19 20 8 0 158 0 
1160 4 19 20 9 0 159 0 
1161 4 19 20 10 0 160 0 
1162 4 19 20 11 0 161 0 
357 2 39 40 6 0 156 0 
358 2 39 40 7 0 157 0 
359 2 39 40 8 0 158 0 
360 2 39 40 9 0 159 0 
361 2 39 40 10 0 160 0 
362 2 39 40 11 0 161 0 
457 2 38 40 6 0 256 0 
458 2 38 40 7 0 257 0 
459 2 38 40 8 0 258 0 
460 2 38 40 9 0 259 0 
461 2 38 40 10 0 260 0 
462 2 38 40 11 0 261 0 
557 2 37 40 6 0 356 0 
558 2 37 40 7 0 357 0 
559 2 37 40 8 0 358 0 
560 2 37 40 9 0 359 0 
561 2 37 40 10 0 360 0 
562 2 37 40 11 0 361 0 
257 2 40 40 6 0 56 0 
258 2 40 40 7 0 57 0 
259 2 40 40 8 0 58 0 
260 2 40 40 9 0 59 0 
261 2 40 40 10 0 60 0 
262 2 40 40 11 0 61 0 
62 1 0 0 12 0 0 0 
63 1 0 0 13 0 0 0 
64 1 0 0 14 0 0 0 
65 1 0 0 15 0 0 0 
66 1 0 0 16 0 0 0 
135 1 1 0 16 0 0 0 
136 1 1 0 15 0 0 0 
137 1 1 0 14 0 0 0 
138 1 1 0 13 0 0 0 
139 1 1 0 12 0 0 0 
1263 4 18 20 12 0 262 0 
1264 4 18 20 13 0 263 0 
1265 4 18 20 14 0 264 0 
1266 4 18 20 15 0 265 0 
1267 4 18 20 16 0 266 0 
1363 4 17 20 12 0 362 0 
1364 4 17 20 13 0 363 0 
1365 4 17 20 14 0 364 0 
1366 4 17 20 15 0 365 0 
1367 4 17 20 16 0 366 0 
1063 4 20 20 12 0 62 0 
1064 4 20 20 13 0 63 0 
1065 4 20 20 14 0 64 0 
1066 4 20 20 15 0 65 0 
1067 4 20 20 16 0 66 0 
1163 4 19 20 12 0 162 0 
1164 4 19 20 13 0 163 0 
1165 4 19 20 14 0 164 0 
1166 4 19 20 15 0 165 0 
1167 4 19 20 16 0 166 0 
363 2 39 40 12 0 162 0 
364 2 39 40 13 0 163 0 
365 2 39 40 14 0 164 0 
366 2 39 40 15 0 165 0 
367 2 39 40 16 0 166 0 
463 2 38 40 12 0 262 0 
464 2 38 40 13 0 263 0 
465 2 38 40 14 0 264 0 
466 2 38 40 15 0 265 0 
467 2 38 40 16 0 266 0 
563 2 37 40 12 0 362 0 
564 2 37 40 13 0 363 0 
565 2 37 40 14 0 364 0 
566 2 37 40 15 0 365 0 
567 2 37 40 16 0 366 0 
263 2 40 40 12 0 62 0 
264 2 40 40 13 0 63 0 
265 2 40 40 14 0 64 0 
266 2 40 40 15 0 65 0 
267 2 40 40 16 0 66 0 
67 1 0 0 17 0 0 0 
68 1 0 0 18 0 0 0 
69 1 0 0 19 0 0 0 
70 1 0 0 20 0 0 0 
71 1 0 0 21 0 0 0 
72 1 0 0 22 0 0 0 
129 1 1 0 22 0 0 0 
130 1 1 0 21 0 0 0 
131 1 1 0 20 0 0 0 
132 1 1 0 19 0 0 0 
133 1 1 0 18 0 0 0 
134 1 1 0 17 0 0 0 
1268 4 18 20 17 0 267 0 
1269 4 18 20 18 0 268 0 
1270 4 18 20 19 0 269 0 
1271 4 18 20 20 0 270 0 
1272 4 18 20 21 0 271 0 
1273 4 18 20 22 0 272 0 
1368 4 17 20 17 0 367 0 
1369 4 17 20 18 0 368 0 
1370 4 17 20 19 0 369 0 
1371 4 17 20 20 0 370 0 
1372 4 17 20 21 0 371 0 
1373 4 17 20 22 0 372 0 
1068 4 20 20 17 0 67 0 
1069 4 20 20 18 0 68 0 
1070 4 20 20 19 0 69 0 
1071 4 20 20 20 0 70 0 
1072 4 20 20 21 0 71 0 
1073 4 20 20 22 0 72 0 
1168 4 19 20 17 0 167 0 
1169 4 19 20 18 0 168 0 
1170 4 19 20 19 0 169 0 
1171 4 19 20 20 0 170 0 
1172 4 19 20 21 0 171 0 
1173 4 19 20 22 0 172 0 
368 2 39 40 17 0 167 0 
369 2 39 40 18 0 168 0 
370 2 39 40 19 0 169 0 
371 2 39 40 20 0 170 0 
372 2 39 40 21 0 171 0 
373 2 39 40 22 0 172 0 
468 2 38 40 17 0 267 0 
469 2 38 40 18 0 268 0 
470 2 38 40 19 0 269 0 
471 2 38 40 20 0 270 0 
472 2 38 40 21 0 271 0 
473 2 38 40 22 0 272 0 
568 2 37 40 17 0 367 0 
569 2 37 40 18 0 368 0 
570 2 37 40 19 0 369 0 
571 2 37 40 20 0 370 0 
572 2 37 40 21 0 371 0 
573 2 37 40 22 0 372 0 
268 2 40 40 17 0 67 0 
269 2 40 40 18 0 68 0 
270 2 40 40 19 0 69 0 
271 2 40 40 20 0 70 0 
272 2 40 40 21 0 71 0 
273 2 40 40 22 0 72 0 
73 1 0 0 23 0 0 0 
74 1 0 0 24 0 0 0 
75 1 0 0 25 0 0 0 
76 1 0 0 26 0 0 0 
77 1 0 0 27 0 0 0 
124 1 1 0 27 0 0 0 
125 1 1 0 26 0 0 0 
126 1 1 0 25 0 0 0 
127 1 1 0 24 0 0 0 
128 1 1 0 23 0 0 0 
1274 4 18 20 23 0 273 0 
1275 4 18 20 24 0 274 0 
1276 4 18 20 25 0 275 0 
1277 4 18 20 26 0 276 0 
1278 4 18 20 27 0 277 0 
1374 4 17 20 23 0 373 0 
1375 4 17 20 24 0 374 0 
1376 4 17 20 25 0 375 0 
1377 4 17 20 26 0 376 0 
1378 4 17 20 27 0 377 0 
1074 4 20 20 23 0 73 0 
1075 4 20 20 24 0 74 0 
1076 4 20 20 25 0 75 0 
1077 4 20 20 26 0 76 0 
1078 4 20 20 27 0 77 0 
1174 4 19 20 23 0 173 0 
1175 4 19 20 24 0 174 0 
1176 4 19 20 25 0 175 0 
1177 4 19 20 26 0 176 0 
1178 4 19 20 27 0 177 0 
374 2 39 40 23 0 173 0 
375 2 39 40 24 0 174 0 
376 2 39 40 25 0 175 0 
377 2 39 40 26 0 176 0 
378 2 39 40 27 0 177 0 
474 2 38 40 23 0 273 0 
475 2 38 40 24 0 274 0 
476 2 38 40 25 0 275 0 
477 2 38 40 26 0 276 0 
478 2 38 40 27 0 277 0 
574 2 37 40 23 0 373 0 
575 2 37 40 24 0 374 0 
576 2 37 40 25 0 375 0 
577 2 37 40 26 0 376 0 
578 2 37 40 27 0 377 0 
274 2 40 40 23 0 73 0 
275 2 40 40 24 0 74 0 
276 2 40 40 25 0 75 0 
277 2 40 40 26 0 76 0 
278 2 40 40 27 0 77 0 
78 1 0 0 28 0 0 0 
79 1 0 0 29 0 0 0 
80 1 0 0 30 0 0 0 
81 1 0 0 31 0 0 0 
82 1 0 0 32 0 0 0 
83 1 0 0 33 0 0 0 
118 1 1 0 33 0 0 0 
119 1 1 0 32 0 0 0 
120 1 1 0 31 0 0 0 
121 1 1 0 30 0 0 0 
122 1 1 0 29 0 0 0 
123 1 1 0 28 0 0 0 
1279 4 18 20 28 0 278 0 
1280 4 18 20 29 0 279 0 
1281 4 18 20 30 0 280 0 
1282 4 18 20 31 0 281 0 
1283 4 18 20 32 0 282 0 
1284 4 18 20 33 0 283 0 
1379 4 17 20 28 0 378 0 
1380 4 17 20 29 0 379 0 
1381 4 17 20 30 0 380 0 
1382 4 17 20 31 0 381 0 
1383 4 17 20 32 0 382 0 
1384 4 17 20 33 0 383 0 
1079 4 20 20 28 0 78 0 
1080 4 20 20 29 0 79 0 
1081 4 20 20 30 0 80 0 
1082 4 20 20 31 0 81 0 
1083 4 20 20 32 0 82 0 
1084 4 20 20 33 0 83 0 
1179 4 19 20 28 0 178 0 
1180 4 19 20 29 0 179 0 
1181 4 19 20 30 0 180 0 
1182 4 19 20 31 0 181 0 
1183 4 19 20 32 0 182 0 
1184 4 19 20 33 0 183 0 
379 2 39 40 28 0 178 0 
380 2 39 40 29 0 179 0 