ITEM: TIMESTEP
0
ITEM: NUMBER OF ATOMS
800
ITEM: BOX BOUNDS pp pp pp
-5.0000000000000000e+01 5.0000000000000000e+01
-5.0000000000000000e+01 5.0000000000000000e+01
-5.0000000000000000e+01 5.0000000000000000e+01
ITEM: ATOMS id type x y z ix iy iz 
401 3 -25 -25 -50 0 0 0 
402 3 -25 -25 -49 0 1 0 
403 3 -25 -25 -48 0 2 0 
404 3 -25 -25 -47 0 3 0 
405 3 -25 -25 -46 0 4 0 
406 3 -25 -25 -45 0 5 0 
501 3 -26 -25 -50 0 100 0 
502 3 -26 -25 -49 0 101 0 
503 3 -26 -25 -48 0 102 0 
504 3 -26 -25 -47 0 103 0 
505 3 -26 -25 -46 0 104 0 
506 3 -26 -25 -45 0 105 0 
407 3 -25 -25 -44 0 6 0 
408 3 -25 -25 -43 0 7 0 
409 3 -25 -25 -42 0 8 0 
410 3 -25 -25 -41 0 9 0 
411 3 -25 -25 -40 0 10 0 
412 3 -25 -25 -39 0 11 0 
507 3 -26 -25 -44 0 106 0 
508 3 -26 -25 -43 0 107 0 
509 3 -26 -25 -42 0 108 0 
510 3 -26 -25 -41 0 109 0 
511 3 -26 -25 -40 0 110 0 
512 3 -26 -25 -39 0 111 0 
413 3 -25 -25 -38 0 12 0 
414 3 -25 -25 -37 0 13 0 
415 3 -25 -25 -36 0 14 0 
416 3 -25 -25 -35 0 15 0 
417 3 -25 -25 -34 0 16 0 
513 3 -26 -25 -38 0 112 0 
514 3 -26 -25 -37 0 113 0 
515 3 -26 -25 -36 0 114 0 
516 3 -26 -25 -35 0 115 0 
517 3 -26 -25 -34 0 116 0 
418 3 -25 -25 -33 0 17 0 
419 3 -25 -25 -32 0 18 0 
420 3 -25 -25 -31 0 19 0 
421 3 -25 -25 -30 0 20 0 
422 3 -25 -25 -29 0 21 0 
423 3 -25 -25 -28 0 22 0 
518 3 -26 -25 -33 0 117 0 
519 3 -26 -25 -32 0 118 0 
520 3 -26 -25 -31 0 119 0 
521 3 -26 -25 -30 0 120 0 
522 3 -26 -25 -29 0 121 0 
523 3 -26 -25 -28 0 122 0 
424 3 -25 -25 -27 0 23 0 
425 3 -25 -25 -26 0 24 0 
426 3 -25 -25 -25 0 25 0 
427 3 -25 -25 -24 0 26 0 
428 3 -25 -25 -23 0 27 0 
524 3 -26 -25 -27 0 123 0 
525 3 -26 -25 -26 0 124 0 
526 3 -26 -25 -25 0 125 0 
527 3 -26 -25 -24 0 126 0 
528 3 -26 -25 -23 0 127 0 
429 3 -25 -25 -22 0 28 0 
430 3 -25 -25 -21 0 29 0 
431 3 -25 -25 -20 0 30 0 
432 3 -25 -25 -19 0 31 0 
433 3 -25 -25 -18 0 32 0 
434 3 -25 -25 -17 0 33 0 
529 3 -26 -25 -22 0 128 0 
530 3 -26 -25 -21 0 129 0 
531 3 -26 -25 -20 0 130 0 
532 3 -26 -25 -19 0 131 0 
533 3 -26 -25 -18 0 132 0 
534 3 -26 -25 -17 0 133 0 
435 3 -25 -25 -16 0 34 0 
436 3 -25 -25 -15 0 35 0 
437 3 -25 -25 -14 0 36 0 
438 3 -25 -25 -13 0 37 0 
439 3 -25 -25 -12 0 38 0 
535 3 -26 -25 -16 0 134 0 
536 3 -26 -25 -15 0 135 0 
537 3 -26 -25 -14 0 136 0 
538 3 -26 -25 -13 0 137 0 
539 3 -26 -25 -12 0 138 0 
440 3 -25 -25 -11 0 39 0 
441 3 -25 -25 -10 0 40 0 
442 3 -25 -25 -9 0 41 0 
443 3 -25 -25 -8 0 42 0 
444 3 -25 -25 -7 0 43 0 
445 3 -25 -25 -6 0 44 0 
540 3 -26 -25 -11 0 139 0 
541 3 -26 -25 -10 0 140 0 
542 3 -26 -25 -9 0 141 0 
543 3 -26 -25 -8 0 142 0 
544 3 -26 -25 -7 0 143 0 
545 3 -26 -25 -6 0 144 0 
446 3 -25 -25 -5 0 45 0 
447 3 -25 -25 -4 0 46 0 
448 3 -25 -25 -3 0 47 0 
449 3 -25 -25 -2 0 48 0 
450 3 -25 -25 -1 0 49 0 
546 3 -26 -25 -5 0 145 0 
547 3 -26 -25 -4 0 146 0 
548 3 -26 -25 -3 0 147 0 
549 3 -26 -25 -2 0 148 0 
550 3 -26 -25 -1 0 149 0 
451 3 -25 -25 0 0 50 0 
452 3 -25 -25 1 0 51 0 
453 3 -25 -25 2 0 52 0 
454 3 -25 -25 3 0 53 0 
455 3 -25 -25 4 0 54 0 
456 3 -25 -25 5 0 55 0 
551 3 -26 -25 0 0 150 0 
552 3 -26 -25 1 0 151 0 
553 3 -26 -25 2 0 152 0 
554 3 -26 -25 3 0 153 0 
555 3 -26 -25 4 0 154 0 
556 3 -26 -25 5 0 155 0 
457 3 -25 -25 6 0 56 0 
458 3 -25 -25 7 0 57 0 
459 3 -25 -25 8 0 58 0 
460 3 -25 -25 9 0 59 0 
461 3 -25 -25 10 0 60 0 
462 3 -25 -25 11 0 61 0 
557 3 -26 -25 6 0 156 0 
558 3 -26 -25 7 0 157 0 
559 3 -26 -25 8 0 158 0 
560 3 -26 -25 9 0 159 0 
561 3 -26 -25 10 0 160 0 
562 3 -26 -25 11 0 161 0 
463 3 -25 -25 12 0 62 0 
464 3 -25 -25 13 0 63 0 
465 3 -25 -25 14 0 64 0 
466 3 -25 -25 15 0 65 0 
467 3 -25 -25 16 0 66 0 
563 3 -26 -25 12 0 162 0 
564 3 -26 -25 13 0 163 0 
565 3 -26 -25 14 0 164 0 
566 3 -26 -25 15 0 165 0 
567 3 -26 -25 16 0 166 0 
468 3 -25 -25 17 0 67 0 
469 3 -25 -25 18 0 68 0 
470 3 -25 -25 19 0 69 0 
471 3 -25 -25 20 0 70 0 
472 3 -25 -25 21 0 71 0 
473 3 -25 -25 22 0 72 0 
568 3 -26 -25 17 0 167 0 
569 3 -26 -25 18 0 168 0 
570 3 -26 -25 19 0 169 0 
571 3 -26 -25 20 0 170 0 
572 3 -26 -25 21 0 171 0 
573 3 -26 -25 22 0 172 0 
474 3 -25 -25 23 0 73 0 
475 3 -25 -25 24 0 74 0 
476 3 -25 -25 25 0 75 0 
477 3 -25 -25 26 0 76 0 
478 3 -25 -25 27 0 77 0 
574 3 -26 -25 23 0 173 0 
575 3 -26 -25 24 0 174 0 
576 3 -26 -25 25 0 175 0 
577 3 -26 -25 26 0 176 0 
578 3 -26 -25 27 0 177 0 
479 3 -25 -25 28 0 78 0 
480 3 -25 -25 29 0 79 0 
481 3 -25 -25 30 0 80 0 
482 3 -25 -25 31 0 81 0 
483 3 -25 -25 32 0 82 0 
484 3 -25 -25 33 0 83 0 
579 3 -26 -25 28 0 178 0 
580 3 -26 -25 29 0 179 0 
581 3 -26 -25 30 0 180 0 
582 3 -26 -25 31 0 181 0 
583 3 -26 -25 32 0 182 0 
584 3 -26 -25 33 0 183 0 
485 3 -25 -25 34 0 84 0 
486 3 -25 -25 35 0 85 0 
487 3 -25 -25 36 0 86 0 
488 3 -25 -25 37 0 87 0 
489 3 -25 -25 38 0 88 0 
585 3 -26 -25 34 0 184 0 
586 3 -26 -25 35 0 185 0 
587 3 -26 -25 36 0 186 0 
588 3 -26 -25 37 0 187 0 
589 3 -26 -25 38 0 188 0 
490 3 -25 -25 39 0 89 0 
491 3 -25 -25 40 0 90 0 
492 3 -25 -25 41 0 91 0 
493 3 -25 -25 42 0 92 0 
494 3 -25 -25 43 0 93 0 
495 3 -25 -25 44 0 94 0 
590 3 -26 -25 39 0 189 0 
591 3 -26 -25 40 0 190 0 
592 3 -26 -25 41 0 191 0 
593 3 -26 -25 42 0 192 0 
594 3 -26 -25 43 0 193 0 
595 3 -26 -25 44 0 194 0 
496 3 -25 -25 45 0 95 0 
497 3 -25 -25 46 0 96 0 
498 3 -25 -25 47 0 97 0 
499 3 -25 -25 48 0 98 0 
500 3 -25 -25 49 0 99 0 
596 3 -26 -25 45 0 195 0 
597 3 -26 -25 46 0 196 0 
598 3 -26 -25 47 0 197 0 
599 3 -26 -25 48 0 198 0 
600 3 -26 -25 49 0 199 0 
1 1 0 0 -49 0 0 0 
2 1 0 0 -48 0 0 0 
3 1 0 0 -47 0 0 0 
4 1 0 0 -46 0 0 0 
5 1 0 0 -45 0 0 0 
100 1 0 0 -50 0 0 1 
101 1 1 0 -50 0 0 1 
196 1 1 0 -45 0 0 0 
197 1 1 0 -46 0 0 0 
198 1 1 0 -47 0 0 0 
199 1 1 0 -48 0 0 0 
200 1 1 0 -49 0 0 0 
601 4 20 20 -50 0 0 0 
602 4 20 20 -49 0 1 0 
603 4 20 20 -48 0 2 0 
604 4 20 20 -47 0 3 0 
605 4 20 20 -46 0 4 0 
606 4 20 20 -45 0 5 0 
701 4 19 20 -50 0 100 0 
702 4 19 20 -49 0 101 0 
703 4 19 20 -48 0 102 0 
704 4 19 20 -47 0 103 0 
705 4 19 20 -46 0 104 0 
706 4 19 20 -45 0 105 0 
301 2 39 40 -50 0 100 0 
302 2 39 40 -49 0 101 0 
303 2 39 40 -48 0 102 0 
304 2 39 40 -47 0 103 0 
305 2 39 40 -46 0 104 0 
306 2 39 40 -45 0 105 0 
201 2 40 40 -50 0 0 0 
202 2 40 40 -49 0 1 0 
203 2 40 40 -48 0 2 0 
204 2 40 40 -47 0 3 0 
205 2 40 40 -46 0 4 0 
206 2 40 40 -45 0 5 0 
6 1 0 0 -44 0 0 0 
7 1 0 0 -43 0 0 0 
8 1 0 0 -42 0 0 0 
9 1 0 0 -41 0 0 0 
10 1 0 0 -40 0 0 0 
11 1 0 0 -39 0 0 0 
190 1 1 0 -39 0 0 0 
191 1 1 0 -40 0 0 0 
192 1 1 0 -41 0 0 0 
193 1 1 0 -42 0 0 0 
194 1 1 0 -43 0 0 0 
195 1 1 0 -44 0 0 0 
607 4 20 20 -44 0 6 0 
608 4 20 20 -43 0 7 0 
609 4 20 20 -42 0 8 0 
610 4 20 20 -41 0 9 0 
611 4 20 20 -40 0 10 0 
612 4 20 20 -39 0 11 0 
707 4 19 20 -44 0 106 0 
708 4 19 20 -43 0 107 0 
709 4 19 20 -42 0 108 0 
710 4 19 20 -41 0 109 0 
711 4 19 20 -40 0 110 0 
712 4 19 20 -39 0 111 0 
307 2 39 40 -44 0 106 0 
308 2 39 40 -43 0 107 0 
309 2 39 40 -42 0 108 0 
310 2 39 40 -41 0 109 0 
311 2 39 40 -40 0 110 0 
312 2 39 40 -39 0 111 0 
207 2 40 40 -44 0 6 0 
208 2 40 40 -43 0 7 0 
209 2 40 40 -42 0 8 0 
210 2 40 40 -41 0 9 0 
211 2 40 40 -40 0 10 0 
212 2 40 40 -39 0 11 0 
12 1 0 0 -38 0 0 0 
13 1 0 0 -37 0 0 0 
14 1 0 0 -36 0 0 0 
15 1 0 0 -35 0 0 0 
16 1 0 0 -34 0 0 0 
185 1 1 0 -34 0 0 0 
186 1 1 0 -35 0 0 0 
187 1 1 0 -36 0 0 0 
188 1 1 0 -37 0 0 0 
189 1 1 0 -38 0 0 0 
613 4 20 20 -38 0 12 0 
614 4 20 20 -37 0 13 0 
615 4 20 20 -36 0 14 0 
616 4 20 20 -35 0 15 0 
617 4 20 20 -34 0 16 0 
713 4 19 20 -38 0 112 0 
714 4 19 20 -37 0 113 0 
715 4 19 20 -36 0 114 0 
716 4 19 20 -35 0 115 0 
717 4 19 20 -34 0 116 0 
313 2 39 40 -38 0 112 0 
314 2 39 40 -37 0 113 0 
315 2 39 40 -36 0 114 0 
316 2 39 40 -35 0 115 0 
317 2 39 40 -34 0 116 0 
213 2 40 40 -38 0 12 0 
214 2 40 40 -37 0 13 0 
215 2 40 40 -36 0 14 0 
216 2 40 40 -35 0 15 0 
217 2 40 40 -34 0 16 0 
17 1 0 0 -33 0 0 0 
18 1 0 0 -32 0 0 0 
19 1 0 0 -31 0 0 0 
20 1 0 0 -30 0 0 0 
21 1 0 0 -29 0 0 0 
22 1 0 0 -28 0 0 0 
179 1 1 0 -28 0 0 0 
180 1 1 0 -29 0 0 0 
181 1 1 0 -30 0 0 0 
182 1 1 0 -31 0 0 0 
183 1 1 0 -32 0 0 0 
184 1 1 0 -33 0 0 0 
618 4 20 20 -33 0 17 0 
619 4 20 20 -32 0 18 0 
620 4 20 20 -31 0 19 0 
621 4 20 20 -30 0 20 0 
622 4 20 20 -29 0 21 0 
623 4 20 20 -28 0 22 0 
718 4 19 20 -33 0 117 0 
719 4 19 20 -32 0 118 0 
720 4 19 20 -31 0 119 0 
721 4 19 20 -30 0 120 0 
722 4 19 20 -29 0 121 0 
723 4 19 20 -28 0 122 0 
318 2 39 40 -33 0 117 0 
319 2 39 40 -32 0 118 0 
320 2 39 40 -31 0 119 0 
321 2 39 40 -30 0 120 0 
322 2 39 40 -29 0 121 0 
323 2 39 40 -28 0 122 0 
218 2 40 40 -33 0 17 0 
219 2 40 40 -32 0 18 0 
220 2 40 40 -31 0 19 0 
221 2 40 40 -30 0 20 0 
222 2 40 40 -29 0 21 0 
223 2 40 40 -28 0 22 0 
23 1 0 0 -27 0 0 0 
24 1 0 0 -26 0 0 0 
25 1 0 0 -25 0 0 0 
26 1 0 0 -24 0 0 0 
27 1 0 0 -23 0 0 0 
174 1 1 0 -23 0 0 0 
175 1 1 0 -24 0 0 0 
176 1 1 0 -25 0 0 0 
177 1 1 0 -26 0 0 0 
178 1 1 0 -27 0 0 0 
624 4 20 20 -27 0 23 0 
625 4 20 20 -26 0 24 0 
626 4 20 20 -25 0 25 0 
627 4 20 20 -24 0 26 0 
628 4 20 20 -23 0 27 0 
724 4 19 20 -27 0 123 0 
725 4 19 20 -26 0 124 0 
726 4 19 20 -25 0 125 0 
727 4 19 20 -24 0 126 0 
728 4 19 20 -23 0 127 0 
324 2 39 40 -27 0 123 0 
325 2 39 40 -26 0 124 0 
326 2 39 40 -25 0 125 0 
327 2 39 40 -24 0 126 0 
328 2 39 40 -23 0 127 0 
224 2 40 40 -27 0 23 0 
225 2 40 40 -26 0 24 0 
226 2 40 40 -25 0 25 0 
227 2 40 40 -24 0 26 0 
228 2 40 40 -23 0 27 0 
28 1 0 0 -22 0 0 0 
29 1 0 0 -21 0 0 0 
30 1 0 0 -20 0 0 0 
31 1 0 0 -19 0 0 0 
32 1 0 0 -18 0 0 0 
33 1 0 0 -17 0 0 0 
168 1 1 0 -17 0 0 0 
169 1 1 0 -18 0 0 0 
170 1 1 0 -19 0 0 0 
171 1 1 0 -20 0 0 0 
172 1 1 0 -21 0 0 0 
173 1 1 0 -22 0 0 0 
629 4 20 20 -22 0 28 0 
630 4 20 20 -21 0 29 0 
631 4 20 20 -20 0 30 0 
632 4 20 20 -19 0 31 0 
633 4 20 20 -18 0 32 0 
634 4 20 20 -17 0 33 0 
729 4 19 20 -22 0 128 0 
730 4 19 20 -21 0 129 0 
731 4 19 20 -20 0 130 0 
732 4 19 20 -19 0 131 0 
733 4 19 20 -18 0 132 0 
734 4 19 20 -17 0 133 0 
329 2 39 40 -22 0 128 0 
330 2 39 40 -21 0 129 0 
331 2 39 40 -20 0 130 0 
332 2 39 40 -19 0 131 0 
333 2 39 40 -18 0 132 0 
334 2 39 40 -17 0 133 0 
229 2 40 40 -22 0 28 0 
230 2 40 40 -21 0 29 0 
231 2 40 40 -20 0 30 0 
232 2 40 40 -19 0 31 0 
233 2 40 40 -18 0 32 0 
234 2 40 40 -17 0 33 0 
34 1 0 0 -16 0 0 0 
35 1 0 0 -15 0 0 0 
36 1 0 0 -14 0 0 0 
37 1 0 0 -13 0 0 0 
38 1 0 0 -12 0 0 0 
163 1 1 0 -12 0 0 0 
164 1 1 0 -13 0 0 0 
165 1 1 0 -14 0 0 0 
166 1 1 0 -15 0 0 0 
167 1 1 0 -16 0 0 0 
635 4 20 20 -16 0 34 0 
636 4 20 20 -15 0 35 0 
637 4 20 20 -14 0 36 0 
638 4 20 20 -13 0 37 0 
639 4 20 20 -12 0 38 0 
735 4 19 20 -16 0 134 0 
736 4 19 20 -15 0 135 0 
737 4 19 20 -14 0 136 0 
738 4 19 20 -13 0 137 0 
739 4 19 20 -12 0 138 0 
335 2 39 40 -16 0 134 0 
336 2 39 40 -15 0 135 0 
337 2 39 40 -14 0 136 0 
338 2 39 40 -13 0 137 0 
339 2 39 40 -12 0 138 0 
235 2 40 40 -16 0 34 0 
236 2 40 40 -15 0 35 0 
237 2 40 40 -14 0 36 0 
238 2 40 40 -13 0 37 0 
239 2 40 40 -12 0 38 0 
39 1 0 0 -11 0 0 0 
40 1 0 0 -10 0 0 0 
41 1 0 0 -9 0 0 0 
42 1 0 0 -8 0 0 0 
43 1 0 0 -7 0 0 0 
44 1 0 0 -6 0 0 0 
157 1 1 0 -6 0 0 0 
158 1 1 0 -7 0 0 0 
159 1 1 0 -8 0 0 0 
160 1 1 0 -9 0 0 0 
161 1 1 0 -10 0 0 0 
162 1 1 0 -11 0 0 0 
640 4 20 20 -11 0 39 0 
641 4 20 20 -10 0 40 0 
642 4 20 20 -9 0 41 0 
643 4 20 20 -8 0 42 0 
644 4 20 20 -7 0 43 0 
645 4 20 20 -6 0 44 0 
740 4 19 20 -11 0 139 0 
741 4 19 20 -10 0 140 0 
742 4 19 20 -9 0 141 0 
743 4 19 20 -8 0 142 0 
744 4 19 20 -7 0 143 0 
745 4 19 20 -6 0 144 0 
340 2 39 40 -11 0 139 0 
341 2 39 40 -10 0 140 0 
342 2 39 40 -9 0 141 0 
343 2 39 40 -8 0 142 0 
344 2 39 40 -7 0 143 0 
345 2 39 40 -6 0 144 0 
240 2 40 40 -11 0 39 0 
241 2 40 40 -10 0 40 0 
242 2 40 40 -9 0 41 0 
243 2 40 40 -8 0 42 0 
244 2 40 40 -7 0 43 0 
245 2 40 40 -6 0 44 0 
45 1 0 0 -5 0 0 0 
46 1 0 0 -4 0 0 0 
47 1 0 0 -3 0 0 0 
48 1 0 0 -2 0 0 0 
49 1 0 0 -1 0 0 0 
152 1 1 0 -1 0 0 0 
153 1 1 0 -2 0 0 0 
154 1 1 0 -3 0 0 0 
155 1 1 0 -4 0 0 0 
156 1 1 0 -5 0 0 0 
646 4 20 20 -5 0 45 0 
647 4 20 20 -4 0 46 0 
648 4 20 20 -3 0 47 0 
649 4 20 20 -2 0 48 0 
650 4 20 20 -1 0 49 0 
746 4 19 20 -5 0 145 0 
747 4 19 20 -4 0 146 0 
748 4 19 20 -3 0 147 0 
749 4 19 20 -2 0 148 0 
750 4 19 20 -1 0 149 0 
346 2 39 40 -5 0 145 0 
347 2 39 40 -4 0 146 0 
348 2 39 40 -3 0 147 0 
349 2 39 40 -2 0 148 0 
350 2 39 40 -1 0 149 0 
246 2 40 40 -5 0 45 0 
247 2 40 40 -4 0 46 0 
248 2 40 40 -3 0 47 0 
249 2 40 40 -2 0 48 0 
250 2 40 40 -1 0 49 0 
50 1 0 0 0 0 0 0 
51 1 0 0 1 0 0 0 
52 1 0 0 2 0 0 0 
53 1 0 0 3 0 0 0 
54 1 0 0 4 0 0 0 
55 1 0 0 5 0 0 0 
146 1 1 0 5 0 0 0 
147 1 1 0 4 0 0 0 
148 1 1 0 3 0 0 0 
149 1 1 0 2 0 0 0 
150 1 1 0 1 0 0 0 
151 1 1 0 0 0 0 0 
651 4 20 20 0 0 50 0 
652 4 20 20 1 0 51 0 
653 4 20 20 2 0 52 0 
654 4 20 20 3 0 53 0 
655 4 20 20 4 0 54 0 
656 4 20 20 5 0 55 0 
751 4 19 20 0 0 150 0 
752 4 19 20 1 0 151 0 
753 4 19 20 2 0 152 0 
754 4 19 20 3 0 153 0 
755 4 19 20 4 0 154 0 
756 4 19 20 5 0 155 0 
351 2 39 40 0 0 150 0 
352 2 39 40 1 0 151 0 
353 2 39 40 2 0 152 0 
354 2 39 40 3 0 153 0 
355 2 39 40 4 0 154 0 
356 2 39 40 5 0 155 0 
251 2 40 40 0 0 50 0 
252 2 40 40 1 0 51 0 
253 2 40 40 2 0 52 0 
254 2 40 40 3 0 53 0 
255 2 40 40 4 0 54 0 
256 2 40 40 5 0 55 0 
56 1 0 0 6 0 0 0 
57 1 0 0 7 0 0 0 
58 1 0 0 8 0 0 0 
59 1 0 0 9 0 0 0 
60 1 0 0 10 0 0 0 
61 1 0 0 11 0 0 0 
140 1 1 0 11 0 0 0 
141 1 1 0 10 0 0 0 
142 1 1 0 9 0 0 0 
143 1 1 0 8 0 0 0 
144 1 1 0 7 0 0 0 
145 1 1 0 6 0 0 0 
657 4 20 20 6 0 56 0 
658 4 20 20 7 0 57 0 
659 4 20 20 8 0 58 0 
660 4 20 20 9 0 59 0 
661 4 20 20 10 0 60 0 
662 4 20 20 11 0 61 0 
757 4 19 20 6 0 156 0 
758 4 19 20 7 0 157 0 
759 4 19 20 8 0 158 0 
760 4 19 20 9 0 159 0 
761 4 19 20 10 0 160 0 
762 4 19 20 11 0 161 0 
357 2 39 40 6 0 156 0 
358 2 39 40 7 0 157 0 
359 2 39 40 8 0 158 0 
360 2 39 40 9 0 159 0 
361 2 39 40 10 0 160 0 
362 2 39 40 11 0 161 0 
257 2 40 40 6 0 56 0 
258 2 40 40 7 0 57 0 
259 2 40 40 8 0 58 0 
260 2 40 40 9 0 59 0 
261 2 40 40 10 0 60 0 
262 2 40 40 11 0 61 0 
62 1 0 0 12 0 0 0 
63 1 0 0 13 0 0 0 
64 1 0 0 14 0 0 0 
65 1 0 0 15 0 0 0 
66 1 0 0 16 0 0 0 
135 1 1 0 16 0 0 0 
136 1 1 0 15 0 0 0 
137 1 1 0 14 0 0 0 
138 1 1 0 13 0 0 0 
139 1 1 0 12 0 0 0 
663 4 20 20 12 0 62 0 
664 4 20 20 13 0 63 0 
665 4 20 20 14 0 64 0 
666 4 20 20 15 0 65 0 
667 4 20 20 16 0 66 0 
763 4 19 20 12 0 162 0 
764 4 19 20 13 0 163 0 
765 4 19 20 14 0 164 0 
766 4 19 20 15 0 165 0 
767 4 19 20 16 0 166 0 
363 2 39 40 12 0 162 0 
364 2 39 40 13 0 163 0 
365 2 39 40 14 0 164 0 
366 2 39 40 15 0 165 0 
367 2 39 40 16 0 166 0 
263 2 40 40 12 0 62 0 
264 2 40 40 13 0 63 0 
265 2 40 40 14 0 64 0 
266 2 40 40 15 0 65 0 
267 2 40 40 16 0 66 0 
67 1 0 0 17 0 0 0 
68 1 0 0 18 0 0 0 
69 1 0 0 19 0 0 0 
70 1 0 0 20 0 0 0 
71 1 0 0 21 0 0 0 
72 1 0 0 22 0 0 0 
129 1 1 0 22 0 0 0 
130 1 1 0 21 0 0 0 
131 1 1 0 20 0 0 0 
132 1 1 0 19 0 0 0 
133 1 1 0 18 0 0 0 
134 1 1 0 17 0 0 0 
668 4 20 20 17 0 67 0 
669 4 20 20 18 0 68 0 
670 4 20 20 19 0 69 0 
671 4 20 20 20 0 70 0 
672 4 20 20 21 0 71 0 
673 4 20 20 22 0 72 0 
768 4 19 20 17 0 167 0 
769 4 19 20 18 0 168 0 
770 4 19 20 19 0 169 0 
771 4 19 20 20 0 170 0 
772 4 19 20 21 0 171 0 
773 4 19 20 22 0 172 0 
368 2 39 40 17 0 167 0 
369 2 39 40 18 0 168 0 
370 2 39 40 19 0 169 0 
371 2 39 40 20 0 170 0 
372 2 39 40 21 0 171 0 
373 2 39 40 22 0 172 0 
268 2 40 40 17 0 67 0 
269 2 40 40 18 0 68 0 
270 2 40 40 19 0 69 0 
271 2 40 40 20 0 70 0 
272 2 40 40 21 0 71 0 
273 2 40 40 22 0 72 0 
73 1 0 0 23 0 0 0 
74 1 0 0 24 0 0 0 
75 1 0 0 25 0 0 0 
76 1 0 0 26 0 0 0 
77 1 0 0 27 0 0 0 
124 1 1 0 27 0 0 0 
125 1 1 0 26 0 0 0 
126 1 1 0 25 0 0 0 
127 1 1 0 24 0 0 0 
128 1 1 0 23 0 0 0 
674 4 20 20 23 0 73 0 
675 4 20 20 24 0 74 0 
676 4 20 20 25 0 75 0 
677 4 20 20 26 0 76 0 
678 4 20 20 27 0 77 0 
774 4 19 20 23 0 173 0 
775 4 19 20 24 0 174 0 
776 4 19 20 25 0 175 0 
777 4 19 20 26 0 176 0 
778 4 19 20 27 0 177 0 
374 2 39 40 23 0 173 0 
375 2 39 40 24 0 174 0 
376 2 39 40 25 0 175 0 
377 2 39 40 26 0 176 0 
378 2 39 40 27 0 177 0 
274 2 40 40 23 0 73 0 
275 2 40 40 24 0 74 0 
276 2 40 40 25 0 75 0 
277 2 40 40 26 0 76 0 
278 2 40 40 27 0 77 0 
78 1 0 0 28 0 0 0 
79 1 0 0 29 0 0 0 
80 1 0 0 30 0 0 0 
81 1 0 0 31 0 0 0 
82 1 0 0 32 0 0 0 
83 1 0 0 33 0 0 0 
118 1 1 0 33 0 0 0 
119 1 1 0 32 0 0 0 
120 1 1 0 31 0 0 0 
121 1 1 0 30 0 0 0 
122 1 1 0 29 0 0 0 
123 1 1 0 28 0 0 0 
679 4 20 20 28 0 78 0 
680 4 20 20 29 0 79 0 
681 4 20 20 30 0 80 0 
682 4 20 20 31 0 81 0 
683 4 20 20 32 0 82 0 
684 4 20 20 33 0 83 0 
779 4 19 20 28 0 178 0 
780 4 19 20 29 0 179 0 
781 4 19 20 30 0 180 0 
782 4 19 20 31 0 181 0 
783 4 19 20 32 0 182 0 
784 4 19 20 33 0 183 0 
379 2 39 40 28 0 178 0 
380 2 39 40 29 0 179 0 
381 2 39 40 30 0 180 0 
382 2 39 40 31 0 181 0 
383 2 39 40 32 0 182 0 
384 2 39 40 33 0 183 0 
279 2 40 40 28 0 78 0 
280 2 40 40 29 0 79 0 
281 2 40 40 30 0 80 0 
282 2 40 40 31 0 81 0 
283 2 40 40 32 0 82 0 
284 2 40 40 33 0 83 0 
84 1 0 0 34 0 0 0 
85 1 0 0 35 0 0 0 
86 1 0 0 36 0 0 0 
87 1 0 0 37 0 0 0 
88 1 0 0 38 0 0 0 
113 1 1 0 38 0 0 0 
114 1 1 0 37 0 0 0 
115 1 1 0 36 0 0 0 
116 1 1 0 35 0 0 0 
117 1 1 0 34 0 0 0 
685 4 20 20 34 0 84 0 
686 4 20 20 35 0 85 0 
687 4 20 20 36 0 86 0 
688 4 20 20 37 0 87 0 
689 4 20 20 38 0 88 0 
785 4 19 20 34 0 184 0 
786 4 19 20 35 0 185 0 
787 4 19 20 36 0 186 0 
788 4 19 20 37 0 187 0 
789 4 19 20 38 0 188 0 
385 2 39 40 34 0 184 0 
386 2 39 40 35 0 185 0 
387 2 39 40 36 0 186 0 
388 2 39 40 37 0 187 0 
389 2 39 40 38 0 188 0 
285 2 40 40 34 0 84 0 
286 2 40 40 35 0 85 0 
287 2 40 40 36 0 86 0 
288 2 40 40 37 0 87 0 
289 2 40 40 38 0 88 0 
89 1 0 0 39 0 0 0 
90 1 0 0 40 0 0 0 
91 1 0 0 41 0 0 0 
92 1 0 0 42 0 0 0 
93 1 0 0 43 0 0 0 
94 1 0 0 44 0 0 0 
107 1 1 0 44 0 0 0 
108 1 1 0 43 0 0 0 
109 1 1 0 42 0 0 0 
110 1 1 0 41 0 0 0 
111 1 1 0 40 0 0 0 
112 1 1 0 39 0 0 0 
690 4 20 20 39 0 89 0 
691 4 20 20 40 0 90 0 
692 4 20 20 41 0 91 0 
693 4 20 20 42 0 92 0 
694 4 20 20 43 0 93 0 
695 4 20 20 44 0 94 0 
790 4 19 20 39 0 189 0 
791 4 19 20 40 0 190 0 
792 4 19 20 41 0 191 0 
793 4 19 20 42 0 192 0 
794 4 19 20 43 0 193 0 
795 4 19 20 44 0 194 0 
390 2 39 40 39 0 189 0 
391 2 39 40 40 0 190 0 
392 2 39 40 41 0 191 0 
393 2 39 40 42 0 192 0 
394 2 39 40 43 0 193 0 
395 2 39 40 44 0 194 0 
290 2 40 40 39 0 89 0 
291 2 40 40 40 0 90 0 
292 2 40 40 41 0 91 0 
293 2 40 40 42 0 92 0 
294 2 40 40 43 0 93 0 
295 2 40 40 44 0 94 0 
95 1 0 0 45 0 0 0 
96 1 0 0 46 0 0 0 
97 1 0 0 47 0 0 0 
98 1 0 0 48 0 0 0 
99 1 0 0 49 0 0 0 
102 1 1 0 49 0 0 0 
103 1 1 0 48 0 0 0 
104 1 1 0 47 0 0 0 
105 1 1 0 46 0 0 0 
106 1 1 0 45 0 0 0 
696 4 20 20 45 0 95 0 
697 4 20 20 46 0 96 0 
698 4 20 20 47 0 97 0 
699 4 20 20 48 0 98 0 
700 4 20 20 49 0 99 0 
796 4 19 20 45 0 195 0 
797 4 19 20 46 0 196 0 
798 4 19 20 47 0 197 0 
799 4 19 20 48 0 198 0 
800 4 19 20 49 0 199 0 
396 2 39 40 45 0 195 0 
397 2 39 40 46 0 196 0 
398 2 39 40 47 0 197 0 
399 2 39 40 48 0 198 0 
400 2 39 40 49 0 199 0 
296 2 40 40 45 0 95 0 
297 2 40 40 46 0 96 0 
298 2 40 40 47 0 97 0 
299 2 40 40 48 0 98 0 
300 2 40 40 49 0 99 0 
ITEM: TIMESTEP
10000
ITEM: NUMBER OF ATOMS
800
ITEM: BOX BOUNDS pp pp pp
-5.0000000000000000e+01 5.0000000000000000e+01
-5.0000000000000000e+01 5.0000000000000000e+01
-5.0000000000000000e+01 5.0000000000000000e+01
ITEM: ATOMS id type x y z ix iy iz 
729 4 -28.5038 -44.7921 -45.621 0 128 0 
743 4 -21.0648 -37.9872 -47.5569 0 143 0 
606 4 -10.3598 -34.8445 -46.4819 1 6 0 
732 4 4.84549 -37.36 -45.8329 0 131 0 
254 2 49.3377 -29.4879 -46.983 0 54 1 
489 3 11.2026 -24.2487 -49.9687 0 89 1 
516 3 18.7255 -26.7925 -47.1184 -1 114 -1 
600 3 -13.2998 -17.6826 -45.4948 -1 199 1 
731 4 -14.2959 -20.8722 -49.3413 0 131 0 
673 4 -6.46942 -21.6907 -46.3122 0 72 1 
420 3 -48.0135 -16.4925 -47.3767 0 19 0 
690 4 -2.9512 -15.8733 -45.0087 1 89 1 
305 2 32.456 -12.6303 -49.1511 0 105 0 
404 3 45.2015 -14.0152 -49.7074 0 4 1 
471 3 -25.6788 -10.0767 -49.7813 0 70 0 
762 4 -23.6583 -7.20147 -46.0967 0 162 0 
222 2 21.0555 -9.90503 -48.8856 0 21 1 
687 4 -10.2494 -2.61379 -47.2907 1 86 1 
789 4 -33.9175 -42.0468 -42.3107 0 188 1 
238 2 -33.6968 -44.2645 -39.7394 1 37 0 
525 3 -11.736 -42.4949 -42.3821 0 124 0 
385 2 24.426 -39.8248 -41.6062 0 185 1 
288 2 46.2555 -42.2833 -42.1259 0 88 1 
395 2 -42.1163 -38.4925 -43.7014 1 195 1 
484 3 -10.5123 -34.8281 -39.4473 0 83 1 
704 4 15.5181 -38.4593 -39.6531 0 104 0 
670 4 -48.4563 -28.8461 -44.0754 1 71 1 
609 4 -13.1066 -32.8124 -42.1997 0 9 -1 
398 2 7.59872 -30.3086 -41.5003 0 198 1 
786 4 22.6272 -27.4566 -39.0029 0 186 1 
299 2 31.3846 -24.3031 -40.5355 1 99 1 
727 4 36.795 -25.0657 -40.1719 -1 127 0 
785 4 16.2587 -15.4574 -44.2831 0 184 1 
630 4 45.2479 -8.37579 -42.6686 0 29 0 
422 3 -1.77243 -40.4192 -34.9142 0 21 0 
622 4 20.9235 -42.7139 -34.847 0 22 0 
587 3 42.039 -41.9222 -34.1798 -1 186 1 
784 4 37.677 -34.6123 -36.9974 0 184 1 
364 2 15.0145 -30.7455 -38.0443 0 163 1 
655 4 43.5638 -32.427 -34.9489 1 55 0 
758 4 19.1636 -27.083 -35.633 0 158 0 
552 3 19.8739 -26.7938 -37.287 -1 151 0 
314 2 -15.6349 -21.4667 -37.3966 0 114 0 
694 4 -47.4767 -11.757 -34.4866 1 93 1 
452 3 -8.75988 -6.54048 -36.4593 0 51 1 
431 3 31.7728 -6.99826 -36.0492 0 30 0 
669 4 42.2371 -10.5833 -38.0258 1 69 1 
654 4 11.1712 -49.8053 -31.4373 1 53 0 
720 4 -27.4195 -40.2697 -29.958 0 120 0 
649 4 7.65942 -42.3006 -31.8855 0 49 0 
728 4 17.5845 -43.8031 -29.7189 0 128 0 
331 2 -46.4203 -32.8763 -27.8908 1 131 1 
448 3 -47.5199 -26.0999 -28.4614 0 47 1 
663 4 -44.445 -25.1609 -31.069 1 62 0 
703 4 -6.34187 -26.3335 -32.6809 0 102 0 
284 2 24.5935 -24.3998 -28.8482 0 84 1 
481 3 23.9606 -26.9274 -32.5342 -1 80 0 
315 2 -35.3922 -17.1574 -30.4139 0 115 0 
523 3 -8.69667 -18.35 -32.0205 0 122 0 
498 3 -4.0178 -21.465 -29.5768 0 97 1 
292 2 -46.9165 -13.2167 -32.8072 1 91 1 
764 4 -7.70629 -16.3513 -31.5755 0 163 0 
680 4 25.0222 -16.0306 -31.3571 1 80 0 
289 2 -34.3331 -8.80395 -32.8957 0 89 1 
4 1 -23.9788 -6.37048 -28.7382 0 0 0 
3 1 -23.1065 -6.32128 -28.1824 0 0 0 
535 3 4.42982 -7.90824 -28.99 -1 135 0 
5 1 -24.5432 -5.42956 -28.6369 0 0 0 
310 2 -8.48087 -1.38847 -32.6535 0 109 0 
438 3 2.57086 -0.249458 -30.6741 1 37 0 
306 2 17.0757 -5.47214 -32.3987 0 106 0 
204 2 -46.539 -47.9543 -24.8822 1 4 0 
657 4 -18.4432 -44.4469 -24.9714 1 57 0 
454 3 17.1673 -45.6887 -23.6364 -1 52 1 
241 2 -24.6001 -39.9505 -27.3805 1 41 0 
615 4 12.6288 -39.4663 -22.6181 0 15 0 
300 2 27.7256 -37.62 -25.6585 0 100 1 
249 2 -44.6577 -25.5924 -23.6621 0 48 0 
638 4 41.4798 -26.7482 -25.9728 0 37 0 
303 2 49.1553 -24.6937 -25.5325 0 102 0 
724 4 -33.3634 -18.8652 -24.3497 0 124 0 
602 4 -8.95864 -19.989 -26.6467 0 2 0 
340 2 -17.1833 -14.5058 -27.2435 0 139 1 
1 1 -22.6108 -6.86172 -26.868 0 0 0 
2 1 -22.5293 -5.83082 -27.1815 0 0 0 
252 2 -15.5511 -10.8859 -25.038 0 51 0 
335 2 46.3059 -5.89558 -27.0247 0 135 0 
436 3 -34.3029 -4.69007 -26.0187 0 35 0 
16 1 -30.0681 -2.96049 -23.189 0 0 0 
14 1 -29.4644 -4.58065 -24.5336 0 0 0 
17 1 -30.6846 -3.60226 -22.6853 0 0 0 
15 1 -29.6527 -3.57119 -23.9204 0 0 0 
7 1 -25.3489 -4.6332 -26.6737 0 0 0 
8 1 -25.446 -3.61779 -26.1577 0 0 0 
9 1 -26.3875 -4.16685 -26.6387 0 0 0 
6 1 -25.0461 -4.77093 -27.7442 0 0 0 
11 1 -28.3692 -4.92939 -26.3949 0 0 0 
10 1 -27.11 -5.12341 -26.7244 0 0 0 
295 2 -28.6401 -4.05154 -23.9556 1 94 1 
12 1 -28.7308 -4.20913 -25.7036 0 0 0 
13 1 -28.5616 -5.2296 -25.1373 0 0 0 
626 4 34.3169 -1.54772 -23.5324 0 26 0 
559 3 -11.0194 -46.1885 -17.4673 0 158 0 
585 3 24.7105 -43.8629 -19.694 0 184 0 
799 4 39.605 -44.2029 -18.4292 0 198 1 
440 3 -39.1396 -29.3217 -17.3902 0 39 0 
301 2 15.197 -32.6669 -20.3103 0 100 0 
674 4 -44.3984 -14.3998 -20.4843 1 74 1 
287 2 -30.8891 -16.2092 -19.0303 1 86 1 
597 3 -5.45994 -7.54181 -22.0794 0 196 1 
363 2 18.5123 -9.03109 -21.7839 0 162 0 
22 1 -30.0535 -0.00549421 -20.7883 0 0 0 
577 3 -30.1582 -1.87071 -21.3811 0 175 1 
19 1 -31.2103 -2.39209 -21.6222 0 0 0 
18 1 -31.1126 -3.58638 -21.6518 0 0 0 
281 2 -32.04 -3.06329 -17.7465 1 80 0 
20 1 -31.3154 -1.45403 -21.1802 0 0 0 
21 1 -31.0428 -0.397276 -20.6505 0 0 0 
432 3 -30.4297 -0.104573 -19.4604 0 31 0 
524 3 8.92251 -2.81139 -21.9749 -1 123 0 
183 1 19.7242 -0.471329 -19.3847 0 0 0 
179 1 19.8112 -1.65453 -17.1542 0 0 0 
180 1 19.3381 -0.779417 -17.4616 0 0 0 
181 1 18.7649 -1.23264 -18.4526 0 0 0 
182 1 18.6536 -0.390247 -19.0115 0 0 0 
296 2 31.2336 -5.2004 -20.5453 0 94 0 
755 4 -47.2595 -49.3942 -11.2891 1 154 0 
676 4 -23.1953 -44.7208 -14.4474 1 76 0 
708 4 -5.88914 -47.4238 -15.8092 0 107 0 
495 3 36.4402 -47.0094 -13.7671 0 94 1 
726 4 48.868 -46.3795 -16.5232 0 126 0 
688 4 27.0247 -36.8181 -14.6835 0 88 0 
747 4 -45.3264 -29.8803 -11.433 1 147 0 
405 3 -39.3437 -32.051 -13.189 0 4 -1 
271 2 -39.5126 -23.244 -12.7591 1 70 0 
426 3 39.3041 -20.8721 -14.1628 0 25 0 
532 3 -21.3768 -9.14321 -15.9754 -1 131 0 
259 2 13.4048 -8.85542 -15.1053 0 58 0 
548 3 28.9349 -9.1449 -13.8103 -1 146 0 
361 2 -47.8464 -2.3754 -11.9022 1 160 0 
176 1 21.2472 -2.47122 -14.2994 0 0 0 
174 1 21.6353 -4.10496 -12.8936 0 0 0 
177 1 20.8634 -2.08657 -15.2574 0 0 0 
175 1 21.7356 -3.14878 -13.4731 0 0 0 
178 1 20.3973 -2.07291 -16.2596 0 0 0 
173 1 22.4274 -3.90456 -12.0561 0 0 0 
172 1 23.0447 -3.35161 -11.2158 0 0 0 
219 2 21.3428 -0.983728 -14.1487 0 18 0 
171 1 23.9924 -3.96711 -11.1488 0 0 0 
627 4 7.64684 -48.6881 -8.97531 0 27 0 
779 4 49.9825 -45.9243 -10.1495 -1 179 0 
353 2 34.1479 -41.9086 -8.70708 0 153 0 
794 4 -18.0713 -34.4203 -6.26556 1 194 0 
265 2 -2.16677 -38.6205 -7.52224 0 65 0 
617 4 16.4964 -36.0355 -7.97632 0 17 0 
572 3 20.4093 -37.3552 -7.47609 -1 171 0 
754 4 -25.879 -28.0591 -7.8866 0 154 0 
756 4 -19.2496 -28.5103 -9.64716 -1 156 0 
701 4 10.5861 -24.4579 -10.7224 0 101 -1 
562 3 -35.1363 -11.2267 -10.0912 0 161 0 
529 3 -9.99851 -11.4923 -10.3967 0 128 -1 
702 4 2.51421 -14.6451 -10.1089 0 102 -1 
446 3 16.6725 -11.1357 -10.7938 0 45 0 
257 2 39.8863 -13.856 -7.5553 0 57 0 
345 2 22.2331 -5.99851 -7.94269 0 145 0 
253 2 -32.7296 -0.239687 -10.7245 1 52 0 
739 4 -30.9246 -4.54258 -9.71463 0 139 0 
677 4 -13.927 -1.2871 -8.85544 0 76 0 
545 3 16.5297 -1.42288 -9.81629 -1 144 0 
488 3 23.0534 -3.44562 -6.0861 0 87 1 
479 3 19.2227 -0.00644354 -6.7079 0 78 0 
170 1 25.079 -4.02176 -10.7062 0 0 0 
169 1 25.7717 -3.8276 -9.84901 0 0 0 
168 1 24.9533 -4.2763 -9.08175 0 0 0 
164 1 25.9555 -4.02252 -6.02126 0 0 0 
165 1 25.9908 -4.79206 -6.8438 0 0 0 
166 1 25.5197 -4.11265 -7.6276 0 0 0 
167 1 25.0605 -3.42197 -8.30824 0 0 0 
558 3 25.3085 -5.34653 -9.71916 -1 157 0 
273 2 24.849 -3.14906 -7.0947 0 72 0 
203 2 38.8981 -2.2786 -10.266 0 2 -1 
279 2 35.7719 -35.6808 -4.99469 0 79 0 
760 4 -36.5644 -30.4193 -1.43268 0 160 0 
379 2 -36.9087 -32.1281 -1.17576 0 178 1 
644 4 48.3612 -31.6979 -2.65024 0 44 0 
223 2 -27.5822 -24.0552 -0.647341 0 23 0 
560 3 6.86589 -26.3696 -5.30678 -1 159 0 
750 4 22.6217 -26.396 -2.35131 0 150 0 
482 3 36.1075 -27.5327 -3.92065 0 80 1 
260 2 -28.3979 -21.6216 -5.37204 1 59 1 
800 4 -6.60259 -21.4927 -3.51174 0 200 0 
392 2 20.4738 -12.8672 -5.06095 1 192 0 
790 4 -23.2403 -9.6274 -1.9306 0 190 0 
584 3 -21.8838 -1.89281 -3.87534 0 183 1 
579 3 4.67527 -4.94645 -1.94876 0 177 0 
282 2 22.5126 -5.13682 -2.1475 0 81 0 
416 3 25.3629 -1.8505 -3.63748 -1 15 0 
163 1 26.1418 -3.5928 -4.89301 0 0 0 
160 1 25.0405 -1.83403 -2.40174 0 0 0 
162 1 25.3606 -3.23732 -4.13606 0 0 0 
159 1 24.6666 -2.58306 -1.69855 0 0 0 
158 1 24.7817 -3.15037 -0.695365 0 0 0 
157 1 25.6859 -2.63056 -0.370176 0 0 0 
161 1 25.2164 -2.76971 -2.9945 0 0 0 
154 1 28.3557 -4.41776 -0.107126 0 0 0 
544 3 -2.60715 -46.8666 4.38617 -1 143 0 
268 2 38.5653 -48.7452 3.12266 1 68 1 
352 2 10.2831 -34.9165 0.0201255 0 151 0 
543 3 -28.0379 -27.8467 2.35248 0 141 0 
770 4 -0.139968 -29.454 3.14882 -1 170 0 
433 3 28.3111 -28.7174 3.95618 0 31 0 
365 2 -42.9268 -25.8099 0.305973 1 165 0 
678 4 13.7786 -22.255 1.74831 0 78 0 
576 3 -45.5666 -21.1881 2.49754 0 175 0 
239 2 -4.23052 -14.2785 1.83832 1 38 0 
464 3 13.8622 -13.637 3.68715 0 63 0 
541 3 39.1323 -13.9562 1.35856 -1 140 0 
350 2 -17.127 -7.65351 1.72053 0 149 0 
451 3 -11.2125 -3.19198 0.997769 0 50 0 
152 1 28.3399 -2.94505 1.45435 0 0 0 
153 1 28.1762 -3.50714 0.536623 0 0 0 
155 1 27.2011 -4.26438 0.216043 0 0 0 
156 1 26.4194 -3.44034 0.00222146 0 0 0 
149 1 29.7454 -1.8405 3.94398 0 0 0 
151 1 29.1422 -2.36298 2.14611 0 0 0 
150 1 29.8989 -2.34377 2.98649 0 0 0 
148 1 29.7056 -1.40728 4.98729 0 0 0 
586 3 31.4521 -1.35458 5.10045 -1 185 1 
418 3 30.8668 -1.5157 4.20624 0 17 0 
646 4 44.0164 -44.9279 10.9901 0 46 0 
635 4 47.6585 -49.7057 9.43304 0 35 -1 
475 3 6.88069 -43.1577 10.7376 0 74 0 
217 2 -30.5617 -38.8754 5.58404 1 17 0 
369 2 -8.74072 -35.5818 7.59952 0 169 0 
741 4 30.2801 -35.0106 6.27642 0 141 0 
751 4 39.3742 -36.0652 6.50044 -1 151 0 
578 3 -5.67382 -32.1059 8.6568 -1 177 0 
503 3 16.2192 -26.0946 7.10726 0 102 -1 
247 2 -48.9162 -17.8465 10.0296 1 47 0 
522 3 20.8476 -19.3221 7.81484 -1 121 -1 
651 4 4.54934 -15.5353 10.3746 0 52 -1 
527 3 -25.1571 -10.0411 6.76786 0 126 0 
275 2 15.4475 -10.5545 10.0084 0 74 0 
472 3 30.2863 -10.3787 5.73118 0 71 0 
429 3 32.0166 -8.49043 10.2068 0 28 0 
367 2 20.3878 -1.10831 7.62449 0 166 -1 
138 1 25.5733 -0.85627 10.9525 0 0 0 
346 2 26.1 -1.02109 5.95539 0 145 0 
147 1 30.3975 -1.7094 5.6908 0 0 0 
146 1 30.1636 -0.65632 5.92692 0 0 0 
145 1 29.2678 -0.226162 6.3441 0 0 0 
689 4 47.0668 -3.31075 9.75775 0 89 1 
449 3 47.7143 -49.5639 16.6058 -1 48 0 
442 3 4.5905 -40.4079 11.435 0 41 0 
215 2 7.30889 -34.7675 15.6663 1 15 0 
625 4 41.6312 -29.8194 13.839 0 25 0 
387 2 47.1208 -24.1412 15.107 -1 187 1 
537 3 -1.09956 -20.7243 14.2491 0 136 0 
569 3 12.743 -17.0309 15.7679 0 168 0 
763 4 44.6743 -17.7557 16.5989 -1 162 0 
453 3 16.6183 -7.4099 13.1774 0 52 0 
564 3 21.4542 -6.58027 16.2591 0 163 0 
372 2 -21.7192 -1.61502 12.4284 0 171 0 
396 2 -13.3069 -0.993 14.6487 0 195 0 
74 1 -15.6431 -0.206635 15.3539 0 0 0 
124 1 18.0085 -2.04449 15.7029 0 0 0 
123 1 17.5134 -2.79917 16.3823 0 0 0 
129 1 20.8441 -3.26585 13.091 0 0 0 
133 1 23.1048 -2.79958 14.1202 0 0 0 
132 1 22.4351 -2.39461 13.3204 0 0 0 
373 2 20.6238 -0.52752 14.7742 0 172 0 
125 1 18.9188 -2.45056 16.322 0 0 0 