
1400 atoms
199 bonds
198 angles
0 dihedrals

4 atom types
1 bond types
2 angle types
0 dihedral types

-50.0000 50.0000 xlo xhi
-50.0000 50.0000 ylo yhi
-50.0000 50.0000 zlo zhi

Masses

1 1.0000
2 1.0000
3 1.0000
4 1.0000

Atoms

1 1 1 -1 0.0000 0.0000 -49.0000
2 1 1 -1 0.0000 0.0000 -48.0000
3 1 1 -1 0.0000 0.0000 -47.0000
4 1 1 -1 0.0000 0.0000 -46.0000
5 1 1 -1 0.0000 0.0000 -45.0000
6 1 1 -1 0.0000 0.0000 -44.0000
7 1 1 -1 0.0000 0.0000 -43.0000
8 1 1 -1 0.0000 0.0000 -42.0000
9 1 1 -1 0.0000 0.0000 -41.0000
10 1 1 -1 0.0000 0.0000 -40.0000
11 1 1 -1 0.0000 0.0000 -39.0000
12 1 1 -1 0.0000 0.0000 -38.0000
13 1 1 -1 0.0000 0.0000 -37.0000
14 1 1 -1 0.0000 0.0000 -36.0000
15 1 1 -1 0.0000 0.0000 -35.0000
16 1 1 -1 0.0000 0.0000 -34.0000
17 1 1 -1 0.0000 0.0000 -33.0000
18 1 1 -1 0.0000 0.0000 -32.0000
19 1 1 -1 0.0000 0.0000 -31.0000
20 1 1 -1 0.0000 0.0000 -30.0000
21 1 1 -1 0.0000 0.0000 -29.0000
22 1 1 -1 0.0000 0.0000 -28.0000
23 1 1 -1 0.0000 0.0000 -27.0000
24 1 1 -1 0.0000 0.0000 -26.0000
25 1 1 -1 0.0000 0.0000 -25.0000
26 1 1 -1 0.0000 0.0000 -24.0000
27 1 1 -1 0.0000 0.0000 -23.0000
28 1 1 -1 0.0000 0.0000 -22.0000
29 1 1 -1 0.0000 0.0000 -21.0000
30 1 1 -1 0.0000 0.0000 -20.0000
31 1 1 -1 0.0000 0.0000 -19.0000
32 1 1 -1 0.0000 0.0000 -18.0000
33 1 1 -1 0.0000 0.0000 -17.0000
34 1 1 -1 0.0000 0.0000 -16.0000
35 1 1 -1 0.0000 0.0000 -15.0000
36 1 1 -1 0.0000 0.0000 -14.0000
37 1 1 -1 0.0000 0.0000 -13.0000
38 1 1 -1 0.0000 0.0000 -12.0000
39 1 1 -1 0.0000 0.0000 -11.0000
40 1 1 -1 0.0000 0.0000 -10.0000
41 1 1 -1 0.0000 0.0000 -9.0000
42 1 1 -1 0.0000 0.0000 -8.0000
43 1 1 -1 0.0000 0.0000 -7.0000
44 1 1 -1 0.0000 0.0000 -6.0000
45 1 1 -1 0.0000 0.0000 -5.0000
46 1 1 -1 0.0000 0.0000 -4.0000
47 1 1 -1 0.0000 0.0000 -3.0000
48 1 1 -1 0.0000 0.0000 -2.0000
49 1 1 -1 0.0000 0.0000 -1.0000
50 1 1 -1 0.0000 0.0000 0.0000
51 1 1 -1 0.0000 0.0000 1.0000
52 1 1 -1 0.0000 0.0000 2.0000
53 1 1 -1 0.0000 0.0000 3.0000
54 1 1 -1 0.0000 0.0000 4.0000
55 1 1 -1 0.0000 0.0000 5.0000
56 1 1 -1 0.0000 0.0000 6.0000
57 1 1 -1 0.0000 0.0000 7.0000
58 1 1 -1 0.0000 0.0000 8.0000
59 1 1 -1 0.0000 0.0000 9.0000
60 1 1 -1 0.0000 0.0000 10.0000
61 1 1 -1 0.0000 0.0000 11.0000
62 1 1 -1 0.0000 0.0000 12.0000
63 1 1 -1 0.0000 0.0000 13.0000
64 1 1 -1 0.0000 0.0000 14.0000
65 1 1 -1 0.0000 0.0000 15.0000
66 1 1 -1 0.0000 0.0000 16.0000
67 1 1 -1 0.0000 0.0000 17.0000
68 1 1 -1 0.0000 0.0000 18.0000
69 1 1 -1 0.0000 0.0000 19.0000
70 1 1 -1 0.0000 0.0000 20.0000
71 1 1 -1 0.0000 0.0000 21.0000
72 1 1 -1 0.0000 0.0000 22.0000
73 1 1 -1 0.0000 0.0000 23.0000
74 1 1 -1 0.0000 0.0000 24.0000
75 1 1 -1 0.0000 0.0000 25.0000
76 1 1 -1 0.0000 0.0000 26.0000
77 1 1 -1 0.0000 0.0000 27.0000
78 1 1 -1 0.0000 0.0000 28.0000
79 1 1 -1 0.0000 0.0000 29.0000
80 1 1 -1 0.0000 0.0000 30.0000
81 1 1 -1 0.0000 0.0000 31.0000
82 1 1 -1 0.0000 0.0000 32.0000
83 1 1 -1 0.0000 0.0000 33.0000
84 1 1 -1 0.0000 0.0000 34.0000
85 1 1 -1 0.0000 0.0000 35.0000
86 1 1 -1 0.0000 0.0000 36.0000
87 1 1 -1 0.0000 0.0000 37.0000
88 1 1 -1 0.0000 0.0000 38.0000
89 1 1 -1 0.0000 0.0000 39.0000
90 1 1 -1 0.0000 0.0000 40.0000
91 1 1 -1 0.0000 0.0000 41.0000
92 1 1 -1 0.0000 0.0000 42.0000
93 1 1 -1 0.0000 0.0000 43.0000
94 1 1 -1 0.0000 0.0000 44.0000
95 1 1 -1 0.0000 0.0000 45.0000
96 1 1 -1 0.0000 0.0000 46.0000
97 1 1 -1 0.0000 0.0000 47.0000
98 1 1 -1 0.0000 0.0000 48.0000
99 1 1 -1 0.0000 0.0000 49.0000
100 1 1 -1 0.0000 0.0000 50.0000
101 1 1 -1 1.0000 0.0000 50.0000
102 1 1 -1 1.0000 0.0000 49.0000
103 1 1 -1 1.0000 0.0000 48.0000
104 1 1 -1 1.0000 0.0000 47.0000
105 1 1 -1 1.0000 0.0000 46.0000
106 1 1 -1 1.0000 0.0000 45.0000
107 1 1 -1 1.0000 0.0000 44.0000
108 1 1 -1 1.0000 0.0000 43.0000
109 1 1 -1 1.0000 0.0000 42.0000
110 1 1 -1 1.0000 0.0000 41.0000
111 1 1 -1 1.0000 0.0000 40.0000
112 1 1 -1 1.0000 0.0000 39.0000
113 1 1 -1 1.0000 0.0000 38.0000
114 1 1 -1 1.0000 0.0000 37.0000
115 1 1 -1 1.0000 0.0000 36.0000
116 1 1 -1 1.0000 0.0000 35.0000
117 1 1 -1 1.0000 0.0000 34.0000
118 1 1 -1 1.0000 0.0000 33.0000
119 1 1 -1 1.0000 0.0000 32.0000
120 1 1 -1 1.0000 0.0000 31.0000
121 1 1 -1 1.0000 0.0000 30.0000
122 1 1 -1 1.0000 0.0000 29.0000
123 1 1 -1 1.0000 0.0000 28.0000
124 1 1 -1 1.0000 0.0000 27.0000
125 1 1 -1 1.0000 0.0000 26.0000
126 1 1 -1 1.0000 0.0000 25.0000
127 1 1 -1 1.0000 0.0000 24.0000
128 1 1 -1 1.0000 0.0000 23.0000
129 1 1 -1 1.0000 0.0000 22.0000
130 1 1 -1 1.0000 0.0000 21.0000
131 1 1 -1 1.0000 0.0000 20.0000
132 1 1 -1 1.0000 0.0000 19.0000
133 1 1 -1 1.0000 0.0000 18.0000
134 1 1 -1 1.0000 0.0000 17.0000
135 1 1 -1 1.0000 0.0000 16.0000
136 1 1 -1 1.0000 0.0000 15.0000
137 1 1 -1 1.0000 0.0000 14.0000
138 1 1 -1 1.0000 0.0000 13.0000
139 1 1 -1 1.0000 0.0000 12.0000
140 1 1 -1 1.0000 0.0000 11.0000
141 1 1 -1 1.0000 0.0000 10.0000
142 1 1 -1 1.0000 0.0000 9.0000
143 1 1 -1 1.0000 0.0000 8.0000
144 1 1 -1 1.0000 0.0000 7.0000
145 1 1 -1 1.0000 0.0000 6.0000
146 1 1 -1 1.0000 0.0000 5.0000
147 1 1 -1 1.0000 0.0000 4.0000
148 1 1 -1 1.0000 0.0000 3.0000
149 1 1 -1 1.0000 0.0000 2.0000
150 1 1 -1 1.0000 0.0000 1.0000
151 1 1 -1 1.0000 0.0000 0.0000
152 1 1 -1 1.0000 0.0000 -1.0000
153 1 1 -1 1.0000 0.0000 -2.0000
154 1 1 -1 1.0000 0.0000 -3.0000
155 1 1 -1 1.0000 0.0000 -4.0000
156 1 1 -1 1.0000 0.0000 -5.0000
157 1 1 -1 1.0000 0.0000 -6.0000
158 1 1 -1 1.0000 0.0000 -7.0000
159 1 1 -1 1.0000 0.0000 -8.0000
160 1 1 -1 1.0000 0.0000 -9.0000
161 1 1 -1 1.0000 0.0000 -10.0000
162 1 1 -1 1.0000 0.0000 -11.0000
163 1 1 -1 1.0000 0.0000 -12.0000
164 1 1 -1 1.0000 0.0000 -13.0000
165 1 1 -1 1.0000 0.0000 -14.0000
166 1 1 -1 1.0000 0.0000 -15.0000
167 1 1 -1 1.0000 0.0000 -16.0000
168 1 1 -1 1.0000 0.0000 -17.0000
169 1 1 -1 1.0000 0.0000 -18.0000
170 1 1 -1 1.0000 0.0000 -19.0000
171 1 1 -1 1.0000 0.0000 -20.0000
172 1 1 -1 1.0000 0.0000 -21.0000
173 1 1 -1 1.0000 0.0000 -22.0000
174 1 1 -1 1.0000 0.0000 -23.0000
175 1 1 -1 1.0000 0.0000 -24.0000
176 1 1 -1 1.0000 0.0000 -25.0000
177 1 1 -1 1.0000 0.0000 -26.0000
178 1 1 -1 1.0000 0.0000 -27.0000
179 1 1 -1 1.0000 0.0000 -28.0000
180 1 1 -1 1.0000 0.0000 -29.0000
181 1 1 -1 1.0000 0.0000 -30.0000
182 1 1 -1 1.0000 0.0000 -31.0000
183 1 1 -1 1.0000 0.0000 -32.0000
184 1 1 -1 1.0000 0.0000 -33.0000
185 1 1 -1 1.0000 0.0000 -34.0000
186 1 1 -1 1.0000 0.0000 -35.0000
187 1 1 -1 1.0000 0.0000 -36.0000
188 1 1 -1 1.0000 0.0000 -37.0000
189 1 1 -1 1.0000 0.0000 -38.0000
190 1 1 -1 1.0000 0.0000 -39.0000
191 1 1 -1 1.0000 0.0000 -40.0000
192 1 1 -1 1.0000 0.0000 -41.0000
193 1 1 -1 1.0000 0.0000 -42.0000
194 1 1 -1 1.0000 0.0000 -43.0000
195 1 1 -1 1.0000 0.0000 -44.0000
196 1 1 -1 1.0000 0.0000 -45.0000
197 1 1 -1 1.0000 0.0000 -46.0000
198 1 1 -1 1.0000 0.0000 -47.0000
199 1 1 -1 1.0000 0.0000 -48.0000
200 1 1 -1 1.0000 0.0000 -49.0000
201 2 2 1 40.0000 40.0000 -50.0000
202 2 2 1 40.0000 140.0000 -49.0000
203 2 2 1 40.0000 240.0000 -48.0000
204 2 2 1 40.0000 340.0000 -47.0000
205 2 2 1 40.0000 440.0000 -46.0000
206 2 2 1 40.0000 540.0000 -45.0000
207 2 2 1 40.0000 640.0000 -44.0000
208 2 2 1 40.0000 740.0000 -43.0000
209 2 2 1 40.0000 840.0000 -42.0000
210 2 2 1 40.0000 940.0000 -41.0000
211 2 2 1 40.0000 1040.0000 -40.0000
212 2 2 1 40.0000 1140.0000 -39.0000
213 2 2 1 40.0000 1240.0000 -38.0000
214 2 2 1 40.0000 1340.0000 -37.0000
215 2 2 1 40.0000 1440.0000 -36.0000
216 2 2 1 40.0000 1540.0000 -35.0000
217 2 2 1 40.0000 1640.0000 -34.0000
218 2 2 1 40.0000 1740.0000 -33.0000
219 2 2 1 40.0000 1840.0000 -32.0000
220 2 2 1 40.0000 1940.0000 -31.0000
221 2 2 1 40.0000 2040.0000 -30.0000
222 2 2 1 40.0000 2140.0000 -29.0000
223 2 2 1 40.0000 2240.0000 -28.0000
224 2 2 1 40.0000 2340.0000 -27.0000
225 2 2 1 40.0000 2440.0000 -26.0000
226 2 2 1 40.0000 2540.0000 -25.0000
227 2 2 1 40.0000 2640.0000 -24.0000
228 2 2 1 40.0000 2740.0000 -23.0000
229 2 2 1 40.0000 2840.0000 -22.0000
230 2 2 1 40.0000 2940.0000 -21.0000
231 2 2 1 40.0000 3040.0000 -20.0000
232 2 2 1 40.0000 3140.0000 -19.0000
233 2 2 1 40.0000 3240.0000 -18.0000
234 2 2 1 40.0000 3340.0000 -17.0000
235 2 2 1 40.0000 3440.0000 -16.0000
236 2 2 1 40.0000 3540.0000 -15.0000
237 2 2 1 40.0000 3640.0000 -14.0000
238 2 2 1 40.0000 3740.0000 -13.0000
239 2 2 1 40.0000 3840.0000 -12.0000
240 2 2 1 40.0000 3940.0000 -11.0000
241 2 2 1 40.0000 4040.0000 -10.0000
242 2 2 1 40.0000 4140.0000 -9.0000
243 2 2 1 40.0000 4240.0000 -8.0000
244 2 2 1 40.0000 4340.0000 -7.0000
245 2 2 1 40.0000 4440.0000 -6.0000
246 2 2 1 40.0000 4540.0000 -5.0000
247 2 2 1 40.0000 4640.0000 -4.0000
248 2 2 1 40.0000 4740.0000 -3.0000
249 2 2 1 40.0000 4840.0000 -2.0000
250 2 2 1 40.0000 4940.0000 -1.0000
251 2 2 1 40.0000 5040.0000 0.0000
252 2 2 1 40.0000 5140.0000 1.0000
253 2 2 1 40.0000 5240.0000 2.0000
254 2 2 1 40.0000 5340.0000 3.0000
255 2 2 1 40.0000 5440.0000 4.0000
256 2 2 1 40.0000 5540.0000 5.0000
257 2 2 1 40.0000 5640.0000 6.0000
258 2 2 1 40.0000 5740.0000 7.0000
259 2 2 1 40.0000 5840.0000 8.0000
260 2 2 1 40.0000 5940.0000 9.0000
261 2 2 1 40.0000 6040.0000 10.0000
262 2 2 1 40.0000 6140.0000 11.0000
263 2 2 1 40.0000 6240.0000 12.0000
264 2 2 1 40.0000 6340.0000 13.0000
265 2 2 1 40.0000 6440.0000 14.0000
266 2 2 1 40.0000 6540.0000 15.0000
267 2 2 1 40.0000 6640.0000 16.0000
268 2 2 1 40.0000 6740.0000 17.0000
269 2 2 1 40.0000 6840.0000 18.0000
270 2 2 1 40.0000 6940.0000 19.0000
271 2 2 1 40.0000 7040.0000 20.0000
272 2 2 1 40.0000 7140.0000 21.0000
273 2 2 1 40.0000 7240.0000 22.0000
274 2 2 1 40.0000 7340.0000 23.0000
275 2 2 1 40.0000 7440.0000 24.0000
276 2 2 1 40.0000 7540.0000 25.0000
277 2 2 1 40.0000 7640.0000 26.0000
278 2 2 1 40.0000 7740.0000 27.0000
279 2 2 1 40.0000 7840.0000 28.0000
280 2 2 1 40.0000 7940.0000 29.0000
281 2 2 1 40.0000 8040.0000 30.0000
282 2 2 1 40.0000 8140.0000 31.0000
283 2 2 1 40.0000 8240.0000 32.0000
284 2 2 1 40.0000 8340.0000 33.0000
285 2 2 1 40.0000 8440.0000 34.0000
286 2 2 1 40.0000 8540.0000 35.0000
287 2 2 1 40.0000 8640.0000 36.0000
288 2 2 1 40.0000 8740.0000 37.0000
289 2 2 1 40.0000 8840.0000 38.0000
290 2 2 1 40.0000 8940.0000 39.0000
291 2 2 1 40.0000 9040.0000 40.0000
292 2 2 1 40.0000 9140.0000 41.0000
293 2 2 1 40.0000 9240.0000 42.0000
294 2 2 1 40.0000 9340.0000 43.0000
295 2 2 1 40.0000 9440.0000 44.0000
296 2 2 1 40.0000 9540.0000 45.0000
297 2 2 1 40.0000 9640.0000 46.0000
298 2 2 1 40.0000 9740.0000 47.0000
299 2 2 1 40.0000 9840.0000 48.0000
300 2 2 1 40.0000 9940.0000 49.0000
301 2 2 1 39.0000 10040.0000 -50.0000
302 2 2 1 39.0000 10140.0000 -49.0000
303 2 2 1 39.0000 10240.0000 -48.0000
304 2 2 1 39.0000 10340.0000 -47.0000
305 2 2 1 39.0000 10440.0000 -46.0000
306 2 2 1 39.0000 10540.0000 -45.0000
307 2 2 1 39.0000 10640.0000 -44.0000
308 2 2 1 39.0000 10740.0000 -43.0000
309 2 2 1 39.0000 10840.0000 -42.0000
310 2 2 1 39.0000 10940.0000 -41.0000
311 2 2 1 39.0000 11040.0000 -40.0000
312 2 2 1 39.0000 11140.0000 -39.0000
313 2 2 1 39.0000 11240.0000 -38.0000
314 2 2 1 39.0000 11340.0000 -37.0000
315 2 2 1 39.0000 11440.0000 -36.0000
316 2 2 1 39.0000 11540.0000 -35.0000
317 2 2 1 39.0000 11640.0000 -34.0000
318 2 2 1 39.0000 11740.0000 -33.0000
319 2 2 1 39.0000 11840.0000 -32.0000
320 2 2 1 39.0000 11940.0000 -31.0000
321 2 2 1 39.0000 12040.0000 -30.0000
322 2 2 1 39.0000 12140.0000 -29.0000
323 2 2 1 39.0000 12240.0000 -28.0000
324 2 2 1 39.0000 12340.0000 -27.0000
325 2 2 1 39.0000 12440.0000 -26.0000
326 2 2 1 39.0000 12540.0000 -25.0000
327 2 2 1 39.0000 12640.0000 -24.0000
328 2 2 1 39.0000 12740.0000 -23.0000
329 2 2 1 39.0000 12840.0000 -22.0000
330 2 2 1 39.0000 12940.0000 -21.0000
331 2 2 1 39.0000 13040.0000 -20.0000
332 2 2 1 39.0000 13140.0000 -19.0000
333 2 2 1 39.0000 13240.0000 -18.0000
334 2 2 1 39.0000 13340.0000 -17.0000
335 2 2 1 39.0000 13440.0000 -16.0000
336 2 2 1 39.0000 13540.0000 -15.0000
337 2 2 1 39.0000 13640.0000 -14.0000
338 2 2 1 39.0000 13740.0000 -13.0000
339 2 2 1 39.0000 13840.0000 -12.0000
340 2 2 1 39.0000 13940.0000 -11.0000
341 2 2 1 39.0000 14040.0000 -10.0000
342 2 2 1 39.0000 14140.0000 -9.0000
343 2 2 1 39.0000 14240.0000 -8.0000
344 2 2 1 39.0000 14340.0000 -7.0000
345 2 2 1 39.0000 14440.0000 -6.0000
346 2 2 1 39.0000 14540.0000 -5.0000
347 2 2 1 39.0000 14640.0000 -4.0000
348 2 2 1 39.0000 14740.0000 -3.0000
349 2 2 1 39.0000 14840.0000 -2.0000
350 2 2 1 39.0000 14940.0000 -1.0000
351 2 2 1 39.0000 15040.0000 0.0000
352 2 2 1 39.0000 15140.0000 1.0000
353 2 2 1 39.0000 15240.0000 2.0000
354 2 2 1 39.0000 15340.0000 3.0000
355 2 2 1 39.0000 15440.0000 4.0000
356 2 2 1 39.0000 15540.0000 5.0000
357 2 2 1 39.0000 15640.0000 6.0000
358 2 2 1 39.0000 15740.0000 7.0000
359 2 2 1 39.0000 15840.0000 8.0000
360 2 2 1 39.0000 15940.0000 9.0000
361 2 2 1 39.0000 16040.0000 10.0000
362 2 2 1 39.0000 16140.0000 11.0000
363 2 2 1 39.0000 16240.0000 12.0000
364 2 2 1 39.0000 16340.0000 13.0000
365 2 2 1 39.0000 16440.0000 14.0000
366 2 2 1 39.0000 16540.0000 15.0000
367 2 2 1 39.0000 16640.0000 16.0000
368 2 2 1 39.0000 16740.0000 17.0000
369 2 2 1 39.0000 16840.0000 18.0000
370 2 2 1 39.0000 16940.0000 19.0000
371 2 2 1 39.0000 17040.0000 20.0000
372 2 2 1 39.0000 17140.0000 21.0000
373 2 2 1 39.0000 17240.0000 22.0000
374 2 2 1 39.0000 17340.0000 23.0000
375 2 2 1 39.0000 17440.0000 24.0000
376 2 2 1 39.0000 17540.0000 25.0000
377 2 2 1 39.0000 17640.0000 26.0000
378 2 2 1 39.0000 17740.0000 27.0000
379 2 2 1 39.0000 17840.0000 28.0000
380 2 2 1 39.0000 17940.0000 29.0000
381 2 2 1 39.0000 18040.0000 30.0000
382 2 2 1 39.0000 18140.0000 31.0000
383 2 2 1 39.0000 18240.0000 32.0000
384 2 2 1 39.0000 18340.0000 33.0000
385 2 2 1 39.0000 18440.0000 34.0000
386 2 2 1 39.0000 18540.0000 35.0000
387 2 2 1 39.0000 18640.0000 36.0000
388 2 2 1 39.0000 18740.0000 37.0000
389 2 2 1 39.0000 18840.0000 38.0000
390 2 2 1 39.0000 18940.0000 39.0000
391 2 2 1 39.0000 19040.0000 40.0000
392 2 2 1 39.0000 19140.0000 41.0000
393 2 2 1 39.0000 19240.0000 42.0000
394 2 2 1 39.0000 19340.0000 43.0000
395 2 2 1 39.0000 19440.0000 44.0000
396 2 2 1 39.0000 19540.0000 45.0000
397 2 2 1 39.0000 19640.0000 46.0000
398 2 2 1 39.0000 19740.0000 47.0000
399 2 2 1 39.0000 19840.0000 48.0000
400 2 2 1 39.0000 19940.0000 49.0000
401 2 2 1 38.0000 20040.0000 -50.0000
402 2 2 1 38.0000 20140.0000 -49.0000
403 2 2 1 38.0000 20240.0000 -48.0000
404 2 2 1 38.0000 20340.0000 -47.0000
405 2 2 1 38.0000 20440.0000 -46.0000
406 2 2 1 38.0000 20540.0000 -45.0000
407 2 2 1 38.0000 20640.0000 -44.0000
408 2 2 1 38.0000 20740.0000 -43.0000
409 2 2 1 38.0000 20840.0000 -42.0000
410 2 2 1 38.0000 20940.0000 -41.0000
411 2 2 1 38.0000 21040.0000 -40.0000
412 2 2 1 38.0000 21140.0000 -39.0000
413 2 2 1 38.0000 21240.0000 -38.0000
414 2 2 1 38.0000 21340.0000 -37.0000
415 2 2 1 38.0000 21440.0000 -36.0000
416 2 2 1 38.0000 21540.0000 -35.0000
417 2 2 1 38.0000 21640.0000 -34.0000
418 2 2 1 38.0000 21740.0000 -33.0000
419 2 2 1 38.0000 21840.0000 -32.0000
420 2 2 1 38.0000 21940.0000 -31.0000
421 2 2 1 38.0000 22040.0000 -30.0000
422 2 2 1 38.0000 22140.0000 -29.0000
423 2 2 1 38.0000 22240.0000 -28.0000
424 2 2 1 38.0000 22340.0000 -27.0000
425 2 2 1 38.0000 22440.0000 -26.0000
426 2 2 1 38.0000 22540.0000 -25.0000
427 2 2 1 38.0000 22640.0000 -24.0000
428 2 2 1 38.0000 22740.0000 -23.0000
429 2 2 1 38.0000 22840.0000 -22.0000
430 2 2 1 38.0000 22940.0000 -21.0000
431 2 2 1 38.0000 23040.0000 -20.0000
432 2 2 1 38.0000 23140.0000 -19.0000
433 2 2 1 38.0000 23240.0000 -18.0000
434 2 2 1 38.0000 23340.0000 -17.0000
435 2 2 1 38.0000 23440.0000 -16.0000
436 2 2 1 38.0000 23540.0000 -15.0000
437 2 2 1 38.0000 23640.0000 -14.0000
438 2 2 1 38.0000 23740.0000 -13.0000
439 2 2 1 38.0000 23840.0000 -12.0000
440 2 2 1 38.0000 23940.0000 -11.0000
441 2 2 1 38.0000 24040.0000 -10.0000
442 2 2 1 38.0000 24140.0000 -9.0000
443 2 2 1 38.0000 24240.0000 -8.0000
444 2 2 1 38.0000 24340.0000 -7.0000
445 2 2 1 38.0000 24440.0000 -6.0000
446 2 2 1 38.0000 24540.0000 -5.0000
447 2 2 1 38.0000 24640.0000 -4.0000
448 2 2 1 38.0000 24740.0000 -3.0000
449 2 2 1 38.0000 24840.0000 -2.0000
450 2 2 1 38.0000 24940.0000 -1.0000
451 2 2 1 38.0000 25040.0000 0.0000
452 2 2 1 38.0000 25140.0000 1.0000
453 2 2 1 38.0000 25240.0000 2.0000
454 2 2 1 38.0000 25340.0000 3.0000
455 2 2 1 38.0000 25440.0000 4.0000
456 2 2 1 38.0000 25540.0000 5.0000
457 2 2 1 38.0000 25640.0000 6.0000
458 2 2 1 38.0000 25740.0000 7.0000
459 2 2 1 38.0000 25840.0000 8.0000
460 2 2 1 38.0000 25940.0000 9.0000
461 2 2 1 38.0000 26040.0000 10.0000
462 2 2 1 38.0000 26140.0000 11.0000
463 2 2 1 38.0000 26240.0000 12.0000
464 2 2 1 38.0000 26340.0000 13.0000
465 2 2 1 38.0000 26440.0000 14.0000
466 2 2 1 38.0000 26540.0000 15.0000
467 2 2 1 38.0000 26640.0000 16.0000
468 2 2 1 38.0000 26740.0000 17.0000
469 2 2 1 38.0000 26840.0000 18.0000
470 2 2 1 38.0000 26940.0000 19.0000
471 2 2 1 38.0000 27040.0000 20.0000
472 2 2 1 38.0000 27140.0000 21.0000
473 2 2 1 38.0000 27240.0000 22.0000
474 2 2 1 38.0000 27340.0000 23.0000
475 2 2 1 38.0000 27440.0000 24.0000
476 2 2 1 38.0000 27540.0000 25.0000
477 2 2 1 38.0000 27640.0000 26.0000
478 2 2 1 38.0000 27740.0000 27.0000
479 2 2 1 38.0000 27840.0000 28.0000
480 2 2 1 38.0000 27940.0000 29.0000
481 2 2 1 38.0000 28040.0000 30.0000
482 2 2 1 38.0000 28140.0000 31.0000
483 2 2 1 38.0000 28240.0000 32.0000
484 2 2 1 38.0000 28340.0000 33.0000
485 2 2 1 38.0000 28440.0000 34.0000
486 2 2 1 38.0000 28540.0000 35.0000
487 2 2 1 38.0000 28640.0000 36.0000
488 2 2 1 38.0000 28740.0000 37.0000
489 2 2 1 38.0000 28840.0000 38.0000
490 2 2 1 38.0000 28940.0000 39.0000
491 2 2 1 38.0000 29040.0000 40.0000
492 2 2 1 38.0000 29140.0000 41.0000
493 2 2 1 38.0000 29240.0000 42.0000
494 2 2 1 38.0000 29340.0000 43.0000
495 2 2 1 38.0000 29440.0000 44.0000
496 2 2 1 38.0000 29540.0000 45.0000
497 2 2 1 38.0000 29640.0000 46.0000
498 2 2 1 38.0000 29740.0000 47.0000
499 2 2 1 38.0000 29840.0000 48.0000
500 2 2 1 38.0000 29940.0000 49.0000
501 2 2 1 37.0000 30040.0000 -50.0000
502 2 2 1 37.0000 30140.0000 -49.0000
503 2 2 1 37.0000 30240.0000 -48.0000
504 2 2 1 37.0000 30340.0000 -47.0000
505 2 2 1 37.0000 30440.0000 -46.0000
506 2 2 1 37.0000 30540.0000 -45.0000
507 2 2 1 37.0000 30640.0000 -44.0000
508 2 2 1 37.0000 30740.0000 -43.0000
509 2 2 1 37.0000 30840.0000 -42.0000
510 2 2 1 37.0000 30940.0000 -41.0000
511 2 2 1 37.0000 31040.0000 -40.0000
512 2 2 1 37.0000 31140.0000 -39.0000
513 2 2 1 37.0000 31240.0000 -38.0000
514 2 2 1 37.0000 31340.0000 -37.0000
515 2 2 1 37.0000 31440.0000 -36.0000
516 2 2 1 37.0000 31540.0000 -35.0000
517 2 2 1 37.0000 31640.0000 -34.0000
518 2 2 1 37.0000 31740.0000 -33.0000
519 2 2 1 37.0000 31840.0000 -32.0000
520 2 2 1 37.0000 31940.0000 -31.0000
521 2 2 1 37.0000 32040.0000 -30.0000
522 2 2 1 37.0000 32140.0000 -29.0000
523 2 2 1 37.0000 32240.0000 -28.0000
524 2 2 1 37.0000 32340.0000 -27.0000
525 2 2 1 37.0000 32440.0000 -26.0000
526 2 2 1 37.0000 32540.0000 -25.0000
527 2 2 1 37.0000 32640.0000 -24.0000
528 2 2 1 37.0000 32740.0000 -23.0000
529 2 2 1 37.0000 32840.0000 -22.0000
530 2 2 1 37.0000 32940.0000 -21.0000
531 2 2 1 37.0000 33040.0000 -20.0000
532 2 2 1 37.0000 33140.0000 -19.0000
533 2 2 1 37.0000 33240.0000 -18.0000
534 2 2 1 37.0000 33340.0000 -17.0000
535 2 2 1 37.0000 33440.0000 -16.0000
536 2 2 1 37.0000 33540.0000 -15.0000
537 2 2 1 37.0000 33640.0000 -14.0000
538 2 2 1 37.0000 33740.0000 -13.0000
539 2 2 1 37.0000 33840.0000 -12.0000
540 2 2 1 37.0000 33940.0000 -11.0000
541 2 2 1 37.0000 34040.0000 -10.0000
542 2 2 1 37.0000 34140.0000 -9.0000
543 2 2 1 37.0000 34240.0000 -8.0000
544 2 2 1 37.0000 34340.0000 -7.0000
545 2 2 1 37.0000 34440.0000 -6.0000
546 2 2 1 37.0000 34540.0000 -5.0000
547 2 2 1 37.0000 34640.0000 -4.0000
548 2 2 1 37.0000 34740.0000 -3.0000
549 2 2 1 37.0000 34840.0000 -2.0000
550 2 2 1 37.0000 34940.0000 -1.0000
551 2 2 1 37.0000 35040.0000 0.0000
552 2 2 1 37.0000 35140.0000 1.0000
553 2 2 1 37.0000 35240.0000 2.0000
554 2 2 1 37.0000 35340.0000 3.0000
555 2 2 1 37.0000 35440.0000 4.0000
556 2 2 1 37.0000 35540.0000 5.0000
557 2 2 1 37.0000 35640.0000 6.0000
558 2 2 1 37.0000 35740.0000 7.0000
559 2 2 1 37.0000 35840.0000 8.0000
560 2 2 1 37.0000 35940.0000 9.0000
561 2 2 1 37.0000 36040.0000 10.0000
562 2 2 1 37.0000 36140.0000 11.0000
563 2 2 1 37.0000 36240.0000 12.0000
564 2 2 1 37.0000 36340.0000 13.0000
565 2 2 1 37.0000 36440.0000 14.0000
566 2 2 1 37.0000 36540.0000 15.0000
567 2 2 1 37.0000 36640.0000 16.0000
568 2 2 1 37.0000 36740.0000 17.0000
569 2 2 1 37.0000 36840.0000 18.0000
570 2 2 1 37.0000 36940.0000 19.0000
571 2 2 1 37.0000 37040.0000 20.0000
572 2 2 1 37.0000 37140.0000 21.0000
573 2 2 1 37.0000 37240.0000 22.0000
574 2 2 1 37.0000 37340.0000 23.0000
575 2 2 1 37.0000 37440.0000 24.0000
576 2 2 1 37.0000 37540.0000 25.0000
577 2 2 1 37.0000 37640.0000 26.0000
578 2 2 1 37.0000 37740.0000 27.0000
579 2 2 1 37.0000 37840.0000 28.0000
580 2 2 1 37.0000 37940.0000 29.0000
581 2 2 1 37.0000 38040.0000 30.0000
582 2 2 1 37.0000 38140.0000 31.0000
583 2 2 1 37.0000 38240.0000 32.0000
584 2 2 1 37.0000 38340.0000 33.0000
585 2 2 1 37.0000 38440.0000 34.0000
586 2 2 1 37.0000 38540.0000 35.0000
587 2 2 1 37.0000 38640.0000 36.0000
588 2 2 1 37.0000 38740.0000 37.0000
589 2 2 1 37.0000 38840.0000 38.0000
590 2 2 1 37.0000 38940.0000 39.0000
591 2 2 1 37.0000 39040.0000 40.0000
592 2 2 1 37.0000 39140.0000 41.0000
593 2 2 1 37.0000 39240.0000 42.0000
594 2 2 1 37.0000 39340.0000 43.0000
595 2 2 1 37.0000 39440.0000 44.0000
596 2 2 1 37.0000 39540.0000 45.0000
597 2 2 1 37.0000 39640.0000 46.0000
598 2 2 1 37.0000 39740.0000 47.0000
599 2 2 1 37.0000 39840.0000 48.0000
600 2 2 1 37.0000 39940.0000 49.0000
601 402 3 1 -25.0000 -25.0000 -50.0000
602 402 3 1 -25.0000 75.0000 -49.0000
603 402 3 1 -25.0000 175.0000 -48.0000
604 402 3 1 -25.0000 275.0000 -47.0000
605 402 3 1 -25.0000 375.0000 -46.0000
606 402 3 1 -25.0000 475.0000 -45.0000
607 402 3 1 -25.0000 575.0000 -44.0000
608 402 3 1 -25.0000 675.0000 -43.0000
609 402 3 1 -25.0000 775.0000 -42.0000
610 402 3 1 -25.0000 875.0000 -41.0000
611 402 3 1 -25.0000 975.0000 -40.0000
612 402 3 1 -25.0000 1075.0000 -39.0000
613 402 3 1 -25.0000 1175.0000 -38.0000
614 402 3 1 -25.0000 1275.0000 -37.0000
615 402 3 1 -25.0000 1375.0000 -36.0000
616 402 3 1 -25.0000 1475.0000 -35.0000
617 402 3 1 -25.0000 1575.0000 -34.0000
618 402 3 1 -25.0000 1675.0000 -33.0000
619 402 3 1 -25.0000 1775.0000 -32.0000
620 402 3 1 -25.0000 1875.0000 -31.0000
621 402 3 1 -25.0000 1975.0000 -30.0000
622 402 3 1 -25.0000 2075.0000 -29.0000
623 402 3 1 -25.0000 2175.0000 -28.0000
624 402 3 1 -25.0000 2275.0000 -27.0000
625 402 3 1 -25.0000 2375.0000 -26.0000
626 402 3 1 -25.0000 2475.0000 -25.0000
627 402 3 1 -25.0000 2575.0000 -24.0000
628 402 3 1 -25.0000 2675.0000 -23.0000
629 402 3 1 -25.0000 2775.0000 -22.0000
630 402 3 1 -25.0000 2875.0000 -21.0000
631 402 3 1 -25.0000 2975.0000 -20.0000
632 402 3 1 -25.0000 3075.0000 -19.0000
633 402 3 1 -25.0000 3175.0000 -18.0000
634 402 3 1 -25.0000 3275.0000 -17.0000
635 402 3 1 -25.0000 3375.0000 -16.0000
636 402 3 1 -25.0000 3475.0000 -15.0000
637 402 3 1 -25.0000 3575.0000 -14.0000
638 402 3 1 -25.0000 3675.0000 -13.0000
639 402 3 1 -25.0000 3775.0000 -12.0000
640 402 3 1 -25.0000 3875.0000 -11.0000
641 402 3 1 -25.0000 3975.0000 -10.0000
642 402 3 1 -25.0000 4075.0000 -9.0000
643 402 3 1 -25.0000 4175.0000 -8.0000
644 402 3 1 -25.0000 4275.0000 -7.0000
645 402 3 1 -25.0000 4375.0000 -6.0000
646 402 3 1 -25.0000 4475.0000 -5.0000
647 402 3 1 -25.0000 4575.0000 -4.0000
648 402 3 1 -25.0000 4675.0000 -3.0000
649 402 3 1 -25.0000 4775.0000 -2.0000
650 402 3 1 -25.0000 4875.0000 -1.0000
651 402 3 1 -25.0000 4975.0000 0.0000
652 402 3 1 -25.0000 5075.0000 1.0000
653 402 3 1 -25.0000 5175.0000 2.0000
654 402 3 1 -25.0000 5275.0000 3.0000
655 402 3 1 -25.0000 5375.0000 4.0000
656 402 3 1 -25.0000 5475.0000 5.0000
657 402 3 1 -25.0000 5575.0000 6.0000
658 402 3 1 -25.0000 5675.0000 7.0000
659 402 3 1 -25.0000 5775.0000 8.0000
660 402 3 1 -25.0000 5875.0000 9.0000
661 402 3 1 -25.0000 5975.0000 10.0000
662 402 3 1 -25.0000 6075.0000 11.0000
663 402 3 1 -25.0000 6175.0000 12.0000
664 402 3 1 -25.0000 6275.0000 13.0000
665 402 3 1 -25.0000 6375.0000 14.0000
666 402 3 1 -25.0000 6475.0000 15.0000
667 402 3 1 -25.0000 6575.0000 16.0000
668 402 3 1 -25.0000 6675.0000 17.0000
669 402 3 1 -25.0000 6775.0000 18.0000
670 402 3 1 -25.0000 6875.0000 19.0000
671 402 3 1 -25.0000 6975.0000 20.0000
672 402 3 1 -25.0000 7075.0000 21.0000
673 402 3 1 -25.0000 7175.0000 22.0000
674 402 3 1 -25.0000 7275.0000 23.0000
675 402 3 1 -25.0000 7375.0000 24.0000
676 402 3 1 -25.0000 7475.0000 25.0000
677 402 3 1 -25.0000 7575.0000 26.0000
678 402 3 1 -25.0000 7675.0000 27.0000
679 402 3 1 -25.0000 7775.0000 28.0000
680 402 3 1 -25.0000 7875.0000 29.0000
681 402 3 1 -25.0000 7975.0000 30.0000
682 402 3 1 -25.0000 8075.0000 31.0000
683 402 3 1 -25.0000 8175.0000 32.0000
684 402 3 1 -25.0000 8275.0000 33.0000
685 402 3 1 -25.0000 8375.0000 34.0000
686 402 3 1 -25.0000 8475.0000 35.0000
687 402 3 1 -25.0000 8575.0000 36.0000
688 402 3 1 -25.0000 8675.0000 37.0000
689 402 3 1 -25.0000 8775.0000 38.0000
690 402 3 1 -25.0000 8875.0000 39.0000
691 402 3 1 -25.0000 8975.0000 40.0000
692 402 3 1 -25.0000 9075.0000 41.0000
693 402 3 1 -25.0000 9175.0000 42.0000
694 402 3 1 -25.0000 9275.0000 43.0000
695 402 3 1 -25.0000 9375.0000 44.0000
696 402 3 1 -25.0000 9475.0000 45.0000
697 402 3 1 -25.0000 9575.0000 46.0000
698 402 3 1 -25.0000 9675.0000 47.0000
699 402 3 1 -25.0000 9775.0000 48.0000
700 402 3 1 -25.0000 9875.0000 49.0000
701 402 3 1 -26.0000 9975.0000 -50.0000
702 402 3 1 -26.0000 10075.0000 -49.0000
703 402 3 1 -26.0000 10175.0000 -48.0000
704 402 3 1 -26.0000 10275.0000 -47.0000
705 402 3 1 -26.0000 10375.0000 -46.0000
706 402 3 1 -26.0000 10475.0000 -45.0000
707 402 3 1 -26.0000 10575.0000 -44.0000
708 402 3 1 -26.0000 10675.0000 -43.0000
709 402 3 1 -26.0000 10775.0000 -42.0000
710 402 3 1 -26.0000 10875.0000 -41.0000
711 402 3 1 -26.0000 10975.0000 -40.0000
712 402 3 1 -26.0000 11075.0000 -39.0000
713 402 3 1 -26.0000 11175.0000 -38.0000
714 402 3 1 -26.0000 11275.0000 -37.0000
715 402 3 1 -26.0000 11375.0000 -36.0000
716 402 3 1 -26.0000 11475.0000 -35.0000
717 402 3 1 -26.0000 11575.0000 -34.0000
718 402 3 1 -26.0000 11675.0000 -33.0000
719 402 3 1 -26.0000 11775.0000 -32.0000
720 402 3 1 -26.0000 11875.0000 -31.0000
721 402 3 1 -26.0000 11975.0000 -30.0000
722 402 3 1 -26.0000 12075.0000 -29.0000
723 402 3 1 -26.0000 12175.0000 -28.0000
724 402 3 1 -26.0000 12275.0000 -27.0000
725 402 3 1 -26.0000 12375.0000 -26.0000
726 402 3 1 -26.0000 12475.0000 -25.0000
727 402 3 1 -26.0000 12575.0000 -24.0000
728 402 3 1 -26.0000 12675.0000 -23.0000
729 402 3 1 -26.0000 12775.0000 -22.0000
730 402 3 1 -26.0000 12875.0000 -21.0000
731 402 3 1 -26.0000 12975.0000 -20.0000
732 402 3 1 -26.0000 13075.0000 -19.0000
733 402 3 1 -26.0000 13175.0000 -18.0000
734 402 3 1 -26.0000 13275.0000 -17.0000
735 402 3 1 -26.0000 13375.0000 -16.0000
736 402 3 1 -26.0000 13475.0000 -15.0000
737 402 3 1 -26.0000 13575.0000 -14.0000
738 402 3 1 -26.0000 13675.0000 -13.0000
739 402 3 1 -26.0000 13775.0000 -12.0000
740 402 3 1 -26.0000 13875.0000 -11.0000
741 402 3 1 -26.0000 13975.0000 -10.0000
742 402 3 1 -26.0000 14075.0000 -9.0000
743 402 3 1 -26.0000 14175.0000 -8.0000
744 402 3 1 -26.0000 14275.0000 -7.0000
745 402 3 1 -26.0000 14375.0000 -6.0000
746 402 3 1 -26.0000 14475.0000 -5.0000
747 402 3 1 -26.0000 14575.0000 -4.0000
748 402 3 1 -26.0000 14675.0000 -3.0000
749 402 3 1 -26.0000 14775.0000 -2.0000
750 402 3 1 -26.0000 14875.0000 -1.0000
751 402 3 1 -26.0000 14975.0000 0.0000
752 402 3 1 -26.0000 15075.0000 1.0000
753 402 3 1 -26.0000 15175.0000 2.0000
754 402 3 1 -26.0000 15275.0000 3.0000
755 402 3 1 -26.0000 15375.0000 4.0000
756 402 3 1 -26.0000 15475.0000 5.0000
757 402 3 1 -26.0000 15575.0000 6.0000
758 402 3 1 -26.0000 15675.0000 7.0000
759 402 3 1 -26.0000 15775.0000 8.0000
760 402 3 1 -26.0000 15875.0000 9.0000
761 402 3 1 -26.0000 15975.0000 10.0000
762 402 3 1 -26.0000 16075.0000 11.0000
763 402 3 1 -26.0000 16175.0000 12.0000
764 402 3 1 -26.0000 16275.0000 13.0000
765 402 3 1 -26.0000 16375.0000 14.0000
766 402 3 1 -26.0000 16475.0000 15.0000
767 402 3 1 -26.0000 16575.0000 16.0000
768 402 3 1 -26.0000 16675.0000 17.0000
769 402 3 1 -26.0000 16775.0000 18.0000
770 402 3 1 -26.0000 16875.0000 19.0000
771 402 3 1 -26.0000 16975.0000 20.0000
772 402 3 1 -26.0000 17075.0000 21.0000
773 402 3 1 -26.0000 17175.0000 22.0000
774 402 3 1 -26.0000 17275.0000 23.0000
775 402 3 1 -26.0000 17375.0000 24.0000
776 402 3 1 -26.0000 17475.0000 25.0000
777 402 3 1 -26.0000 17575.0000 26.0000
778 402 3 1 -26.0000 17675.0000 27.0000
779 402 3 1 -26.0000 17775.0000 28.0000
780 402 3 1 -26.0000 17875.0000 29.0000
781 402 3 1 -26.0000 17975.0000 30.0000
782 402 3 1 -26.0000 18075.0000 31.0000
783 402 3 1 -26.0000 18175.0000 32.0000
784 402 3 1 -26.0000 18275.0000 33.0000
785 402 3 1 -26.0000 18375.0000 34.0000
786 402 3 1 -26.0000 18475.0000 35.0000
787 402 3 1 -26.0000 18575.0000 36.0000
788 402 3 1 -26.0000 18675.0000 37.0000
789 402 3 1 -26.0000 18775.0000 38.0000
790 402 3 1 -26.0000 18875.0000 39.0000
791 402 3 1 -26.0000 18975.0000 40.0000
792 402 3 1 -26.0000 19075.0000 41.0000
793 402 3 1 -26.0000 19175.0000 42.0000
794 402 3 1 -26.0000 19275.0000 43.0000
795 402 3 1 -26.0000 19375.0000 44.0000
796 402 3 1 -26.0000 19475.0000 45.0000
797 402 3 1 -26.0000 19575.0000 46.0000
798 402 3 1 -26.0000 19675.0000 47.0000
799 402 3 1 -26.0000 19775.0000 48.0000
800 402 3 1 -26.0000 19875.0000 49.0000
801 402 3 1 -27.0000 19975.0000 -50.0000
802 402 3 1 -27.0000 20075.0000 -49.0000
803 402 3 1 -27.0000 20175.0000 -48.0000
804 402 3 1 -27.0000 20275.0000 -47.0000
805 402 3 1 -27.0000 20375.0000 -46.0000
806 402 3 1 -27.0000 20475.0000 -45.0000
807 402 3 1 -27.0000 20575.0000 -44.0000
808 402 3 1 -27.0000 20675.0000 -43.0000
809 402 3 1 -27.0000 20775.0000 -42.0000
810 402 3 1 -27.0000 20875.0000 -41.0000
811 402 3 1 -27.0000 20975.0000 -40.0000