LAMMPS (7 Sep 2016-ICMS)
WARNING: OMP_NUM_THREADS environment is not set. Defaulting to 1 thread. (../comm.cpp:90)
  using 1 OpenMP thread(s) per MPI task
Reading data file ...
  orthogonal box = (-50 -50 -50) to (50 50 50)
  1 by 2 by 2 MPI processor grid
  reading atoms ...
  800 atoms
  scanning bonds ...
  1 = max bonds/atom
  scanning angles ...
  1 = max angles/atom
  reading bonds ...
  199 bonds
  reading angles ...
  198 angles
Finding 1-2 1-3 1-4 neighbors ...
 Special bond factors lj:   0          0          0         
 Special bond factors coul: 0          0          0         
  2 = max # of 1-2 neighbors
  2 = max # of 1-3 neighbors
  4 = max # of 1-4 neighbors
  6 = max # of special neighbors
200 atoms in group chain
200 atoms in group drug
200 atoms in group cation
200 atoms in group anion
Setting atom values ...
  200 settings made for charge
Setting atom values ...
  200 settings made for charge
Setting atom values ...
  200 settings made for charge
Setting atom values ...
  200 settings made for charge
Finding 1-2 1-3 1-4 neighbors ...
 Special bond factors lj:   0          1          1         
 Special bond factors coul: 0          0          0         
  2 = max # of 1-2 neighbors
  2 = max # of 1-3 neighbors
  4 = max # of 1-4 neighbors
  6 = max # of special neighbors
PPPM initialization ...
WARNING: Using 12-bit tables for long-range coulomb (../kspace.cpp:319)
  G vector (1/distance) = 0.175488
  grid = 20 20 20
  stencil order = 5
  estimated absolute RMS force accuracy = 0.00116316
  estimated relative force accuracy = 0.00116316
  using double precision FFTs
  3d grid and FFT values/proc = 5625 2000
Neighbor list info ...
  2 neighbor list requests
  update every 1 steps, delay 10 steps, check yes
  max neighbors/atom: 2000, page size: 100000
  master list distance cutoff = 10.3
  ghost atom cutoff = 10.3
  binsize = 5.15, bins = 20 20 20
Setting up Verlet run ...
  Unit style    : lj
  Current step  : 0
  Time step     : 0.01
Memory usage per processor = 8.07542 Mbytes
Step Temp Pxx Pyy Pzz Volume PotEng 
       0            0  0.013682506 -0.00078119587  0.035255218      1000000    5282.4905 
   50000    1.0245596 0.00046242894 0.00060062631 0.00066746565      1000000   -28.550979 
  100000    1.0161194 0.00057350942 0.00069333805 0.0005271667      1000000   -26.430424 
  150000    1.0105526 0.00059828825 0.00059726497 0.00055967972      1000000   -47.569655 
  200000    1.0868823 0.00036425875 0.00047196725 0.00049109188      1000000   -66.500379 
  250000   0.95023119 0.00037718925 0.0003792325 0.00021270796      1000000   -8.2022615 
  300000    1.0156489 0.0004093876 0.00062277335 0.00056158494      1000000   -41.178832 
  350000   0.96674166 0.00032772723 0.00048103753 0.00013816743      1000000   -6.7551087 
  400000   0.97209985 0.00039041744 0.00026411735 0.00015908804      1000000    -18.51145 
  450000    1.0150739 0.00063486704 0.00022554219 0.0004439473      1000000   -14.101086 
  500000    1.0129862 0.00057568646 0.00035240344 0.00042004296      1000000   -68.823173 
  550000    1.0008278 0.00037097212 0.00040774839 0.00054356626      1000000   -18.704091 
  600000    1.0066514 0.00051611761 0.00040946883 0.00050720598      1000000   -58.699449 
  650000    1.0361462 0.0006043629 0.0005069146 0.0004146508      1000000   -24.600713 
  700000    0.9966243 0.00029605755 0.0003745248 0.00038798306      1000000   -7.3593893 
  750000   0.98074819 0.0002621509 0.00028317793 0.00031601893      1000000   -24.530197 
  800000    0.9985986 0.0003483663 0.00038442044 0.00037453491      1000000   -163.38859 
  850000    1.0159813 0.00062954715 0.00053836646 0.00066598539      1000000   -272.57798 
  900000    1.0675957 0.00050073656 0.00072369489 0.00051712257      1000000   -334.81726 
  950000   0.98615515  0.000403545 0.00042333249 0.00035299493      1000000   -286.50005 
 1000000    1.0015268 0.00051932749 0.00053521062 0.00041038481      1000000   -310.83219 
 1050000     1.062942 0.00047547237 0.00070155055 0.00063252163      1000000   -406.70648 
 1100000    1.0265513 0.00037615147 0.00034043897 0.00052248124      1000000   -435.98679 
 1150000    1.0068257 0.00048663438 0.00041475647 0.00041581923      1000000   -493.47665 
 1200000   0.98737696 0.00071535909 0.00051732264 0.00063465902      1000000   -502.32055 
 1250000   0.93931591 0.0004566219 0.00055958656 0.00038882925      1000000   -438.77195 
 1300000   0.97980369 0.00014183689 0.00050636083 0.00044219507      1000000   -358.96336 
 1350000    1.0144154 0.00041344238 0.00042660134 0.0002712491      1000000   -312.82036 
 1400000    1.0319999 0.00058008653 0.00059595317 0.00068996266      1000000   -350.86526 
 1450000    1.0151879 0.00041666425 0.00031573441 0.00029551959      1000000   -307.17316 
 1500000    1.0167525 0.00044119433 0.0006237865 0.00061501913      1000000   -319.13523 
 1550000   0.97253955 0.00064470506 0.00053330266 0.00055207853      1000000   -241.63785 
 1600000     1.047895 0.00061117663 0.0005629181 0.00077044457      1000000   -353.14546 
 1650000   0.97672338 0.00060770917 0.00033738003 0.00059175037      1000000   -471.25709 
 1700000   0.98519458 0.00037005348 0.00044142644 0.00062402612      1000000   -604.45172 
 1750000    1.0165529 0.00049685692 0.00032506946 0.00038243418      1000000   -443.94459 
 1800000    1.0129959 0.00051012155 0.00051820249 0.00024363565      1000000   -334.09235 
 1850000   0.98772572 0.00043157915 0.00057828979 0.00026438508      1000000   -415.03228 
 1900000    1.0020191 0.00023361957 0.00036327482 0.0006812579      1000000   -387.69271 
 1950000   0.99745245 0.0006895015 0.00034076874 0.0006006044      1000000   -327.13139 
 2000000    1.0175439 0.00047808507 0.00058438484 0.0007545873      1000000   -444.15553 
 2050000    1.0301655 0.00046402877 0.00038717203 0.00030905354      1000000   -323.05014 
 2100000   0.96898839 0.00057518776 0.00044425997 0.00029915506      1000000   -370.28027 
 2150000     1.047949 0.0005318587 0.00065109377 0.0004511147      1000000   -248.98426 
 2200000    1.0032872 0.00061120487 0.00066596762 0.00060515846      1000000   -259.91682 
 2250000    1.0125055 0.00056194398 0.00051223484 0.00053848723      1000000   -317.88419 
 2300000   0.97979953 0.00052561607 0.00064488713 0.00069466046      1000000   -343.86374 
 2350000   0.97810644 0.00047980872 0.00045641401 0.00042699112      1000000   -284.56211 
 2400000    1.0709482 0.00042220869 0.00035893087 0.00038405274      1000000   -422.86186 
 2450000    1.0177906 0.00065915943 0.00053764197 0.00063243108      1000000   -418.06345 
 2500000    1.0023084 0.00055225377 0.00036853247 0.00036493847      1000000   -421.58956 
 2550000     1.039814 0.00055799561 0.00064652712 0.00063774576      1000000   -435.44254 
 2600000     1.025151 0.00048459453 0.00065565688 0.00044934159      1000000    -451.8436 
 2650000   0.93824934 0.00040773463 0.00018863459 0.00033379116      1000000    -371.8886 
 2700000    1.0178932 0.00053364285 0.00030596094 0.00050479521      1000000   -346.48714 
 2750000    1.0035926 0.0002516591 0.0003235069 0.00039213431      1000000    -286.4725 
 2800000   0.98337753 0.00032536384 0.00028214067 0.00063627099      1000000    -297.9245 
 2850000   0.93351634 0.00059136763 0.00049766831 0.00064206594      1000000   -252.64124 
 2900000    1.0480875 0.00045031974 0.00072051965 0.00054170944      1000000   -376.34903 
 2950000   0.99804685 0.00031849505 0.00021900737 0.00026331123      1000000   -427.59249 
 3000000    1.0577424 0.00061921432 0.00035091612 0.00051090516      1000000   -459.84568 
 3050000   0.99861059 0.00042154256 0.00048509707 0.00047331299      1000000   -427.92683 
 3100000   0.99875687 0.00031312541 0.00033766437 0.0005122793      1000000   -370.68707 
 3150000   0.99198316 0.00052740826 0.00043882783 0.00041453815      1000000    -365.9167 
 3200000   0.98784368 0.00085853423 0.00054068376 0.00029574311      1000000   -422.18235 
 3250000   0.96942007 0.00047575721 0.0006380095 0.00070570373      1000000   -375.58387 
 3300000    1.0409262 0.00051338215 0.00043148986 0.00061832492      1000000   -318.50278 
 3350000    1.0167281 0.00051028919 0.00051330505 0.00051566805      1000000   -199.45401 
 3400000    1.0111246 0.00052108825 0.00052354976 0.00028202509      1000000   -365.15759 
 3450000   0.96268193 0.00060914798 0.00039786075 0.00051411903      1000000   -364.63634 
 3500000    1.0471995 0.00051448319 0.00054995489 0.00046563986      1000000   -294.89169 
 3550000   0.97714072 0.00036639099 0.00069066106 0.0004827583      1000000   -301.94767 
 3600000    0.9979294 0.00049046229 0.00082665981 0.00059356029      1000000   -367.29909 
 3650000     1.007941 0.00043303223 0.00029197345 0.00031658787      1000000   -455.14047 
 3700000    0.9749875 0.00036692834 0.00057011704 0.00037196145      1000000    -493.4518 
 3750000     1.046939 0.00071578684 0.00047440963 0.00079787014      1000000   -399.54794 
 3800000    1.0003939 0.00051908794 0.00061790476 0.00049979904      1000000   -523.13818 
 3850000   0.96710313 0.00031574455 0.00041610716 5.7699607e-05      1000000   -485.85397 
 3900000    1.0039463 0.00051558983 0.00055278888 0.00026490787      1000000   -491.01794 
 3950000    1.0291353 0.00043499511 0.00047894637 0.00042182129      1000000   -441.41799 
 4000000   0.99870878 0.00043273619 0.0002680422 0.00036353371      1000000   -508.46662 
 4050000    1.0079858 0.00052862714 0.00045312547 0.00046396138      1000000   -279.41742 
 4100000   0.99387894 0.00028036774 0.00039054896 0.00024823428      1000000   -352.69628 
 4150000   0.99203179 0.00018095427 0.00047545622 0.00053683853      1000000    -362.3135 
 4200000    1.0178663 0.00030975655 0.0005196972 0.00042113388      1000000    -318.9881 
 4250000   0.97625751 0.00060582714 0.00055561131 0.00063316582      1000000   -319.35772 
 4300000   0.97327375 0.00058424096 0.00045978153 0.00038882733      1000000   -357.57028 
 4350000   0.98435074 0.00036414972 0.00048882064 0.00060494358      1000000   -300.62107 
 4400000    1.0642606 0.00046144048 0.00060185485 0.00079126879      1000000   -376.39036 
 4450000    1.0742117  0.000481069 0.00055301424 0.00060104682      1000000   -351.59835 
 4500000    1.0076267 0.00052551745 0.00050868366 0.00044169562      1000000   -303.52802 
 4550000    1.0458423 0.00061227829 0.00030571567 0.0003127091      1000000   -302.91093 
 4600000    1.0014888 0.00037094241 9.9189108e-05 0.00025424031      1000000   -308.63252 
 4650000   0.98568931 0.00052455204 0.00025535555 0.00046849338      1000000   -336.19463 
 4700000    1.0170276 0.00073934012 0.00066579437 0.00059144396      1000000   -425.57588 
 4750000   0.97450041 0.00048453946 0.00048245022 0.00023774253      1000000   -510.94343 
 4800000    1.0498993 0.00033707896 0.00052706194 0.0005272434      1000000   -424.03192 
 4850000   0.98528065 0.00062081288 0.00045133466 0.00055181602      1000000   -444.93118 
 4900000   0.97737916 0.00056858856 0.00044548077 0.00062364751      1000000   -367.01444 
 4950000    1.0295398 0.00079615156 0.00046824826 0.00067808297      1000000    -511.4538 
 5000000    1.0111706 0.00083094252 0.00064616644 0.00063363964      1000000   -454.45048 
Loop time of 3483.2 on 4 procs for 5000000 steps with 800 atoms

Performance: 1240238.997 tau/day, 1435.462 timesteps/s
100.0% CPU use with 4 MPI tasks x 1 OpenMP threads

MPI task timing breakdown:
Section |  min time  |  avg time  |  max time  |%varavg| %total
---------------------------------------------------------------
Pair    | 188.11     | 415.6      | 641.21     | 816.8 | 11.93
Bond    | 20.414     | 32.684     | 47.341     | 195.7 |  0.94
Kspace  | 2395.5     | 2575.5     | 2763.2     | 262.6 | 73.94
Neigh   | 108.56     | 108.71     | 108.86     |   1.0 |  3.12
Comm    | 139.93     | 201.64     | 256.42     | 331.5 |  5.79
Output  | 0.063895   | 0.064076   | 0.064534   |   0.1 |  0.00
Modify  | 119.4      | 122.43     | 124.66     |  18.0 |  3.51
Other   |            | 26.55      |            |       |  0.76

Nlocal:    200 ave 295 max 125 min
Histogram: 1 1 0 0 0 1 0 0 0 1
Nghost:    231.5 ave 268 max 202 min
Histogram: 1 0 1 0 0 1 0 0 0 1
Neighs:    2628.25 ave 7030 max 159 min
Histogram: 1 1 0 1 0 0 0 0 0 1

Total # of neighbors = 10513
Ave neighs/atom = 13.1412
Ave special neighs/atom = 1.485
Neighbor list builds = 500000
Dangerous builds = 499995
All done
Total wall time: 0:58:03
